
     Program PWSCF v.7.2 starts on 26Jul2023 at 11:20:48 
        Git branch: heads/qe-7.2
        Last git commit: b4c5e8deeb7d1863e7553a87b45f8d22c21926a5
        Last git commit date: Mon Mar 27 16:12:09 2023 +0000
        Last git commit subject: Merge branch 'merge_fix_hubbard' into 'develop'

     This program is part of the open-source Quantum ESPRESSO suite
     for quantum simulation of materials; please cite
         "P. Giannozzi et al., J. Phys.:Condens. Matter 21 395502 (2009);
         "P. Giannozzi et al., J. Phys.:Condens. Matter 29 465901 (2017);
         "P. Giannozzi et al., J. Chem. Phys. 152 154105 (2020);
          URL http://www.quantum-espresso.org", 
     in publications or presentations arising from this work. More details at
     http://www.quantum-espresso.org/quote

     Parallel version (MPI), running on    20 processors

     MPI processes distributed on     1 nodes
     90159 MiB available memory on the printing compute node when the environment starts
 
     Reading input from RuO2-110-0-0123.in

     Current dimensions of program PWSCF are:
     Max number of different atomic species (ntypx) = 10
     Max number of k-points (npk) =  40000
     Max angular momentum in pseudopotentials (lmaxx) =  4
 
     Reading input from environ.in:
     * Environ restarting
     * setting up water environment
     * using electronic solvent mode
     * setting boundary derivatives method to SCCS default
     
     file O.pbe-n-kjpaw_psl.0.1.UPF: wavefunction(s)  2P renormalized
     Message from routine setup:
     using ibrav=0 with symmetry is DISCOURAGED, use correct ibrav instead
 
     R & G space division:  proc/nbgrp/npool/nimage =      20
     Subspace diagonalization in iterative solution of the eigenvalue problem:
     one sub-group per band group will be used
     scalapack distributed-memory algorithm (size of sub-group:  2*  2 procs)

 
     Parallelization info
     --------------------
     sticks:   dense  smooth     PW     G-vecs:    dense   smooth      PW
     Min         276     110     29                54982    13912    1877
     Max         277     111     30                54993    13923    1888
     Sum        5537    2217    585              1099789   278381   37601
 
     Using Slab Decomposition
 


     bravais-lattice index     =            0
     lattice parameter (alat)  =      12.3824  a.u.
     unit-cell volume          =    5825.9133 (a.u.)^3
     number of atoms/cell      =           48
     number of atomic types    =            3
     number of electrons       =       368.00
     number of Kohn-Sham states=          221
     kinetic-energy cutoff     =      50.0000  Ry
     charge density cutoff     =     500.0000  Ry
     scf convergence threshold =      1.0E-09
     mixing beta               =       0.7000
     number of iterations used =            8  local-TF  mixing
     energy convergence thresh.=      1.0E-04
     force convergence thresh. =      1.0E-04
     Exchange-correlation= PBE
                           (   1   4   3   4   0   0   0)
     nstep                     =          200


     ================================================================================
 
                                  Environ Setup Summary

     ================================================================================
 
     Please cite

          O. Andreussi, I. Dabo and N. Marzari, J. Chem. Phys. 136, 064102 (2012)

     in publications or presentations arising from this work.

     ================================================================================
 
     Parameters
     ==========

     compensation onset threshold      =               0.1000E+00
     static permittivity               =                    78.30
     surface tension in input (dyn/cm) =                    47.90
     surface tension in internal units =               0.6153E-04
     external pressure in input (GPa)  =                    -0.36
     external pressure in inter. units =              -0.2447E-04

     Solvent Boundary
     ================

     solvent mode                      =               electronic
     derivatives method                =                    chain
     numerical core for derivatives    =                      fft
     switching function adopted        =                     SCCS
     density limit for vacuum region   =               0.5000E-02
     density limit for bulk solvent    =               0.1000E-03

     Electrostatic Setup
     ===================

     electrostatic problem to solve    =              generalized
     numerical solver adopted          =                       cg
     type of auxiliary density adopted =                     none
     numerical core for poisson        =                      fft
     type of pbc corrections           =                parabolic
     numerical core for corrections    =                      1da

     ================================================================================
 

     celldm(1)=  12.382447  celldm(2)=   0.000000  celldm(3)=   0.000000
     celldm(4)=   0.000000  celldm(5)=   0.000000  celldm(6)=   0.000000

     crystal axes: (cart. coord. in units of alat)
               a(1) = (   1.000000   0.000000   0.000000 )  
               a(2) = (   0.000000   0.908473   0.000000 )  
               a(3) = (   0.000000   0.000000   3.377790 )  

     reciprocal axes: (cart. coord. in units 2 pi/alat)
               b(1) = (  1.000000  0.000000  0.000000 )  
               b(2) = (  0.000000  1.100748  0.000000 )  
               b(3) = (  0.000000  0.000000  0.296052 )  


     PseudoPot. # 1 for O  read from file:
     /gpfs/group/ixd4/default/Simon/pseudopotentials/materialscloud/SSSP_1.3.0_PBE_efficiency/O.pbe-n-kjpaw_psl.0.1.UPF
     MD5 check sum: 0234752ac141de4415c5fc33072bef88
     Pseudo is Projector augmented-wave + core cor, Zval =  6.0
     Generated using "atomic" code by A. Dal Corso  v.5.0.99 svn rev. 10869
     Shape of augmentation charge: BESSEL
     Using radial grid of 1095 points,  4 beta functions with: 
                l(1) =   0
                l(2) =   0
                l(3) =   1
                l(4) =   1
     Q(r) pseudized with 0 coefficients 


     PseudoPot. # 2 for Ru read from file:
     /gpfs/group/ixd4/default/Simon/pseudopotentials/materialscloud/SSSP_1.3.0_PBE_efficiency/Ru_ONCV_PBE-1.0.oncvpsp.upf
     MD5 check sum: be037bb81c227cfb9b1461a9f099f4bd
     Pseudo is Norm-conserving, Zval = 16.0
     Generated using ONCVPSP code by D. R. Hamann
     Using radial grid of 1458 points,  6 beta functions with: 
                l(1) =   0
                l(2) =   0
                l(3) =   1
                l(4) =   1
                l(5) =   2
                l(6) =   2

     PseudoPot. # 3 for H  read from file:
     /gpfs/group/ixd4/default/Simon/pseudopotentials/materialscloud/SSSP_1.3.0_PBE_efficiency/H.pbe-rrkjus_psl.1.0.0.UPF
     MD5 check sum: f52b6d4d1c606e5624b1dc7b2218f220
     Pseudo is Ultrasoft, Zval =  1.0
     Generated using "atomic" code by A. Dal Corso  v.5.1
     Using radial grid of  929 points,  2 beta functions with: 
                l(1) =   0
                l(2) =   0
     Q(r) pseudized with 0 coefficients 


     atomic species   valence    mass     pseudopotential
        O              6.00    15.99940     O ( 1.00)
        Ru            16.00   101.07000     Ru( 1.00)
        H              1.00     1.00794     H ( 1.00)

      2 Sym. Ops. (no inversion) found



   Cartesian axes

     site n.     atom                  positions (alat units)
         1           O   tau(   1) = (   0.0019623   0.4365300   0.9047057  )
         2           O   tau(   2) = (   0.4875057   0.4186297   0.9122539  )
         3           O   tau(   3) = (  -0.0024060   0.0090213   1.0172771  )
         4           O   tau(   4) = (   0.4986248   0.0174278   1.0137281  )
         5           Ru  tau(   5) = (   0.2484595   0.0025699   1.2104087  )
         6           Ru  tau(   6) = (   0.7480150   0.0024970   1.2108511  )
         7           O   tau(   7) = (   0.2477783   0.2763776   1.2126886  )
         8           O   tau(   8) = (   0.7499621   0.2798583   1.2109557  )
         9           Ru  tau(   9) = (   0.0003048   0.4552734   1.1997340  )
        10           Ru  tau(  10) = (   0.4960769   0.4554024   1.2102937  )
        11           O   tau(  11) = (   0.2508506   0.6352010   1.1986191  )
        12           O   tau(  12) = (   0.7453879   0.6315421   1.1958410  )
        13           O   tau(  13) = (  -0.0013353  -0.0029581   1.3902096  )
        14           O   tau(  14) = (   0.4980900  -0.0010589   1.3891737  )
        15           O   tau(  15) = (  -0.0004275   0.4592016   1.4921080  )
        16           O   tau(  16) = (   0.5005818   0.4570164   1.5062262  )
        17           Ru  tau(  17) = (   0.0018515   0.0010157   1.6888985  )
        18           Ru  tau(  18) = (   0.4969439   0.0010775   1.6888985  )
        19           O   tau(  19) = (   0.2473667   0.1798602   1.6888985  )
        20           O   tau(  20) = (   0.7505232   0.1751089   1.6888985  )
        21           Ru  tau(  21) = (   0.2443070   0.4555501   1.6888985  )
        22           Ru  tau(  22) = (   0.7550701   0.4557362   1.6888985  )
        23           O   tau(  23) = (   0.2485101   0.7313144   1.6888985  )
        24           O   tau(  24) = (   0.7497567   0.7365562   1.6888985  )
        25           O   tau(  25) = (  -0.0004275   0.4592016   1.8856857  )
        26           O   tau(  26) = (   0.5005818   0.4570164   1.8715675  )
        27           O   tau(  27) = (  -0.0013353  -0.0029581   1.9875841  )
        28           O   tau(  28) = (   0.4980900  -0.0010589   1.9886200  )
        29           Ru  tau(  29) = (   0.2484595   0.0025699   2.1673850  )
        30           Ru  tau(  30) = (   0.7480150   0.0024970   2.1669426  )
        31           O   tau(  31) = (   0.2477783   0.2763776   2.1651051  )
        32           O   tau(  32) = (   0.7499621   0.2798583   2.1668380  )
        33           Ru  tau(  33) = (   0.0003048   0.4552734   2.1780597  )
        34           Ru  tau(  34) = (   0.4960769   0.4554024   2.1675000  )
        35           O   tau(  35) = (   0.2508506   0.6352010   2.1791746  )
        36           O   tau(  36) = (   0.7453879   0.6315421   2.1819527  )
        37           O   tau(  37) = (  -0.0024060   0.0090213   2.3605200  )
        38           O   tau(  38) = (   0.4986248   0.0174278   2.3640689  )
        39           O   tau(  39) = (   0.0019623   0.4365300   2.4730880  )
        40           O   tau(  40) = (   0.4875057   0.4186297   2.4655398  )
        41           H   tau(  41) = (   0.1476437   0.4396738   0.8555851  )
        42           H   tau(  42) = (   0.1476437   0.4396738   2.5222052  )
        43           H   tau(  43) = (   0.6263337   0.4402517   0.8530136  )
        44           H   tau(  44) = (   0.6263337   0.4402517   2.5247767  )
        45           H   tau(  45) = (  -0.0038173   0.1053395   0.9117550  )
        46           H   tau(  46) = (  -0.0038173   0.1053395   2.4660353  )
        47           H   tau(  47) = (   0.4985143   0.1351653   0.9367025  )
        48           H   tau(  48) = (   0.4985143   0.1351653   2.4410878  )

     number of k points=     2  Marzari-Vanderbilt smearing, width (Ry)=  0.0300
                       cart. coord. in units 2pi/alat
        k(    1) = (   0.2500000   0.2751871   0.0000000), wk =   1.0000000
        k(    2) = (  -0.2500000   0.2751871   0.0000000), wk =   1.0000000

     Dense  grid:  1099789 G-vectors     FFT dimensions: (  90,  81, 300)

     Smooth grid:   278381 G-vectors     FFT dimensions: (  60,  54, 192)

     Estimated max dynamical RAM per process >     180.53 MB

     Estimated total dynamical RAM >       3.53 GB

     Check: negative core charge=   -0.000001

     Initial potential from superposition of free atoms

     starting charge     367.9933, renormalised to     368.0000

     add environment contribution to local potential
     Polarization accuracy = 2.2E-12, # of iterations =  24

     negative rho (up, down):  2.840E-05 0.000E+00
     Starting wfcs are  240 randomized atomic wfcs
     Checking if some PAW data can be deallocated... 

     total cpu time spent up to now is      898.9 secs

     per-process dynamical memory:   150.6 Mb

     Self-consistent Calculation

     iteration #  1     ecut=    50.00 Ry     beta= 0.70
     Davidson diagonalization with overlap
     ethr =  1.00E-02,  avg # of iterations =  3.0

     negative rho (up, down):  1.728E-08 0.000E+00

     total cpu time spent up to now is     1079.7 secs

     total energy              =   -3435.43926037 Ry
     estimated scf accuracy    <       8.90980175 Ry
     electrostatic embedding   =      -0.00181611 Ry
     cavitation energy         =       0.01931625 Ry
     PV energy                 =      -0.08529402 Ry
     correction to one-el term =     223.63361649 Ry

     iteration #  2     ecut=    50.00 Ry     beta= 0.70
     Davidson diagonalization with overlap
     ethr =  2.42E-03,  avg # of iterations =  2.0

     total cpu time spent up to now is     1314.7 secs

     total energy              =   -3437.47038976 Ry
     estimated scf accuracy    <       1.35686360 Ry
     electrostatic embedding   =      -0.00279200 Ry
     cavitation energy         =       0.01914372 Ry
     PV energy                 =      -0.08609899 Ry
     correction to one-el term =     223.63677586 Ry

     iteration #  3     ecut=    50.00 Ry     beta= 0.70
     Davidson diagonalization with overlap
     ethr =  3.69E-04,  avg # of iterations =  5.0

     total cpu time spent up to now is     1609.1 secs

     total energy              =   -3437.60481471 Ry
     estimated scf accuracy    <       0.20934568 Ry
     electrostatic embedding   =      -0.00310873 Ry
     cavitation energy         =       0.01924208 Ry
     PV energy                 =      -0.08594610 Ry
     correction to one-el term =     223.63747742 Ry

     iteration #  4     ecut=    50.00 Ry     beta= 0.70
     Davidson diagonalization with overlap
     ethr =  5.69E-05,  avg # of iterations =  1.0

     total cpu time spent up to now is     1830.9 secs

     total energy              =   -3437.59785754 Ry
     estimated scf accuracy    <       0.19371774 Ry
     electrostatic embedding   =      -0.00326535 Ry
     cavitation energy         =       0.01948304 Ry
     PV energy                 =      -0.08519617 Ry
     correction to one-el term =     223.63750300 Ry

     iteration #  5     ecut=    50.00 Ry     beta= 0.70
     Davidson diagonalization with overlap
     ethr =  5.26E-05,  avg # of iterations =  2.0

     total cpu time spent up to now is     2106.1 secs

     total energy              =   -3437.60377647 Ry
     estimated scf accuracy    <       0.12559848 Ry
     electrostatic embedding   =      -0.00330234 Ry
     cavitation energy         =       0.01985588 Ry
     PV energy                 =      -0.08427578 Ry
     correction to one-el term =     223.63719006 Ry

     iteration #  6     ecut=    50.00 Ry     beta= 0.70
     Davidson diagonalization with overlap
     ethr =  3.41E-05,  avg # of iterations =  5.0

     add environment contribution to local potential
     Polarization accuracy = 1.5E-12, # of iterations =  37

     total cpu time spent up to now is     2279.5 secs

     total energy              =   -3437.59831492 Ry
     estimated scf accuracy    <       0.06333716 Ry
     electrostatic embedding   =      -0.00325610 Ry
     cavitation energy         =       0.02018900 Ry
     PV energy                 =      -0.08347895 Ry
     correction to one-el term =     223.63673867 Ry

     iteration #  7     ecut=    50.00 Ry     beta= 0.70
     Davidson diagonalization with overlap
     ethr =  1.72E-05,  avg # of iterations = 10.5

     add environment contribution to local potential
     Polarization accuracy = 9.8E-12, # of iterations =  43

     total cpu time spent up to now is     2562.1 secs

     total energy              =   -3437.61170163 Ry
     estimated scf accuracy    <       0.05815727 Ry
     electrostatic embedding   =      -0.03268650 Ry
     cavitation energy         =       0.02061772 Ry
     PV energy                 =      -0.08237192 Ry
     correction to one-el term =     189.55739593 Ry

     iteration #  8     ecut=    50.00 Ry     beta= 0.70
     Davidson diagonalization with overlap
     ethr =  1.58E-05,  avg # of iterations =  3.0

     negative rho (up, down):  5.942E-08 0.000E+00

     add environment contribution to local potential
     Polarization accuracy = 4.8E-12, # of iterations =  49

     total cpu time spent up to now is     2761.3 secs

     total energy              =   -3437.61017259 Ry
     estimated scf accuracy    <       0.02677227 Ry
     electrostatic embedding   =      -0.03704716 Ry
     cavitation energy         =       0.02112505 Ry
     PV energy                 =      -0.08130307 Ry
     correction to one-el term =     186.14861316 Ry

     iteration #  9     ecut=    50.00 Ry     beta= 0.70
     Davidson diagonalization with overlap
     ethr =  7.28E-06,  avg # of iterations =  7.0

     negative rho (up, down):  4.597E-04 0.000E+00

     add environment contribution to local potential
     Polarization accuracy = 8.7E-12, # of iterations =  48

     total cpu time spent up to now is     3008.2 secs

     total energy              =   -3437.61106268 Ry
     estimated scf accuracy    <       0.01253844 Ry
     electrostatic embedding   =      -0.04012820 Ry
     cavitation energy         =       0.02136069 Ry
     PV energy                 =      -0.08071070 Ry
     correction to one-el term =     184.48838951 Ry

     iteration # 10     ecut=    50.00 Ry     beta= 0.70
     Davidson diagonalization with overlap
     ethr =  3.41E-06,  avg # of iterations =  3.0

     negative rho (up, down):  2.827E-04 0.000E+00

     add environment contribution to local potential
     Polarization accuracy = 6.9E-12, # of iterations =  47

     total cpu time spent up to now is     3230.2 secs

     total energy              =   -3437.61242954 Ry
     estimated scf accuracy    <       0.00894353 Ry
     electrostatic embedding   =      -0.03967355 Ry
     cavitation energy         =       0.02125135 Ry
     PV energy                 =      -0.08066791 Ry
     correction to one-el term =     185.13046150 Ry

     iteration # 11     ecut=    50.00 Ry     beta= 0.70
     Davidson diagonalization with overlap
     ethr =  2.43E-06,  avg # of iterations =  6.0

     negative rho (up, down):  1.799E-04 0.000E+00

     add environment contribution to local potential
     Polarization accuracy = 3.7E-12, # of iterations =  46

     total cpu time spent up to now is     3377.0 secs

     total energy              =   -3437.61422727 Ry
     estimated scf accuracy    <       0.00244035 Ry
     electrostatic embedding   =      -0.03624314 Ry
     cavitation energy         =       0.02094375 Ry
     PV energy                 =      -0.08094076 Ry
     correction to one-el term =     187.32058944 Ry

     iteration # 12     ecut=    50.00 Ry     beta= 0.70
     Davidson diagonalization with overlap
     ethr =  6.63E-07,  avg # of iterations =  6.0

     negative rho (up, down):  2.031E-05 0.000E+00

     add environment contribution to local potential
     Polarization accuracy = 3.9E-12, # of iterations =  45

     total cpu time spent up to now is     3622.4 secs

     total energy              =   -3437.61505891 Ry
     estimated scf accuracy    <       0.00211258 Ry
     electrostatic embedding   =      -0.03500871 Ry
     cavitation energy         =       0.02085304 Ry
     PV energy                 =      -0.08104026 Ry
     correction to one-el term =     188.29788719 Ry

     iteration # 13     ecut=    50.00 Ry     beta= 0.70
     Davidson diagonalization with overlap
     ethr =  5.74E-07,  avg # of iterations =  7.0

     negative rho (up, down):  2.129E-05 0.000E+00

     add environment contribution to local potential
     Polarization accuracy = 4.8E-12, # of iterations =  44

     total cpu time spent up to now is     3844.2 secs

     total energy              =   -3437.61586224 Ry
     estimated scf accuracy    <       0.00073306 Ry
     electrostatic embedding   =      -0.03308652 Ry
     cavitation energy         =       0.02073176 Ry
     PV energy                 =      -0.08121181 Ry
     correction to one-el term =     189.81157315 Ry

     iteration # 14     ecut=    50.00 Ry     beta= 0.70
     Davidson diagonalization with overlap
     ethr =  1.99E-07,  avg # of iterations =  7.0

     negative rho (up, down):  6.999E-06 0.000E+00

     add environment contribution to local potential
     Polarization accuracy = 3.9E-12, # of iterations =  44

     total cpu time spent up to now is     4007.0 secs

     total energy              =   -3437.61624121 Ry
     estimated scf accuracy    <       0.00048611 Ry
     electrostatic embedding   =      -0.03155555 Ry
     cavitation energy         =       0.02064162 Ry
     PV energy                 =      -0.08135500 Ry
     correction to one-el term =     190.94832232 Ry

     iteration # 15     ecut=    50.00 Ry     beta= 0.70
     Davidson diagonalization with overlap
     ethr =  1.32E-07,  avg # of iterations =  7.0

     negative rho (up, down):  6.831E-06 0.000E+00

     add environment contribution to local potential
     Polarization accuracy = 2.8E-12, # of iterations =  44

     total cpu time spent up to now is     4210.3 secs

     total energy              =   -3437.61639772 Ry
     estimated scf accuracy    <       0.00018871 Ry
     electrostatic embedding   =      -0.03102531 Ry
     cavitation energy         =       0.02065486 Ry
     PV energy                 =      -0.08136903 Ry
     correction to one-el term =     191.46648268 Ry

     iteration # 16     ecut=    50.00 Ry     beta= 0.70
     Davidson diagonalization with overlap
     ethr =  5.13E-08,  avg # of iterations =  7.0

     negative rho (up, down):  1.017E-03 0.000E+00

     add environment contribution to local potential
     Polarization accuracy = 2.8E-12, # of iterations =  44

     total cpu time spent up to now is     4444.0 secs

     total energy              =   -3437.61644810 Ry
     estimated scf accuracy    <       0.00020934 Ry
     electrostatic embedding   =      -0.03029736 Ry
     cavitation energy         =       0.02065090 Ry
     PV energy                 =      -0.08140502 Ry
     correction to one-el term =     191.88090793 Ry

     iteration # 17     ecut=    50.00 Ry     beta= 0.70
     Davidson diagonalization with overlap
     ethr =  5.13E-08,  avg # of iterations =  1.0

     negative rho (up, down):  5.816E-04 0.000E+00

     add environment contribution to local potential
     Polarization accuracy = 3.0E-12, # of iterations =  44

     total cpu time spent up to now is     4620.4 secs

     total energy              =   -3437.61646312 Ry
     estimated scf accuracy    <       0.00000673 Ry
     electrostatic embedding   =      -0.03006415 Ry
     cavitation energy         =       0.02065637 Ry
     PV energy                 =      -0.08140800 Ry
     correction to one-el term =     192.02817480 Ry

     iteration # 18     ecut=    50.00 Ry     beta= 0.70
     Davidson diagonalization with overlap
     ethr =  1.83E-09,  avg # of iterations =  5.0

     negative rho (up, down):  5.066E-04 0.000E+00

     add environment contribution to local potential
     Polarization accuracy = 3.3E-12, # of iterations =  46

     total cpu time spent up to now is     4943.3 secs

     total energy              =   -3437.61646625 Ry
     estimated scf accuracy    <       0.00000268 Ry
     electrostatic embedding   =      -0.02990379 Ry
     cavitation energy         =       0.02065594 Ry
     PV energy                 =      -0.08140378 Ry
     correction to one-el term =     192.07092937 Ry

     iteration # 19     ecut=    50.00 Ry     beta= 0.70
     Davidson diagonalization with overlap
     ethr =  7.28E-10,  avg # of iterations =  2.0

     negative rho (up, down):  3.386E-04 0.000E+00

     add environment contribution to local potential
     Polarization accuracy = 3.2E-12, # of iterations =  44

     total cpu time spent up to now is     5108.7 secs

     total energy              =   -3437.61646654 Ry
     estimated scf accuracy    <       0.00000238 Ry
     electrostatic embedding   =      -0.02980638 Ry
     cavitation energy         =       0.02065411 Ry
     PV energy                 =      -0.08140250 Ry
     correction to one-el term =     192.10560462 Ry

     iteration # 20     ecut=    50.00 Ry     beta= 0.70
     Davidson diagonalization with overlap
     ethr =  6.48E-10,  avg # of iterations =  2.0

     negative rho (up, down):  2.605E-04 0.000E+00

     add environment contribution to local potential
     Polarization accuracy = 3.4E-12, # of iterations =  44

     total cpu time spent up to now is     5378.0 secs

     total energy              =   -3437.61646646 Ry
     estimated scf accuracy    <       0.00000146 Ry
     electrostatic embedding   =      -0.02977738 Ry
     cavitation energy         =       0.02065158 Ry
     PV energy                 =      -0.08140083 Ry
     correction to one-el term =     192.11087639 Ry

     iteration # 21     ecut=    50.00 Ry     beta= 0.70
     Davidson diagonalization with overlap
     ethr =  3.96E-10,  avg # of iterations =  2.0

     negative rho (up, down):  1.808E-04 0.000E+00

     add environment contribution to local potential
     Polarization accuracy = 3.5E-12, # of iterations =  44

     total cpu time spent up to now is     5539.3 secs

     total energy              =   -3437.61646703 Ry
     estimated scf accuracy    <       0.00000071 Ry
     electrostatic embedding   =      -0.02970433 Ry
     cavitation energy         =       0.02065025 Ry
     PV energy                 =      -0.08139805 Ry
     correction to one-el term =     192.13075032 Ry

     iteration # 22     ecut=    50.00 Ry     beta= 0.70
     Davidson diagonalization with overlap
     ethr =  1.92E-10,  avg # of iterations =  2.0

     negative rho (up, down):  1.998E-04 0.000E+00

     add environment contribution to local potential
     Polarization accuracy = 3.1E-12, # of iterations =  43

     total cpu time spent up to now is     5720.6 secs

     total energy              =   -3437.61646740 Ry
     estimated scf accuracy    <       0.00000023 Ry
     electrostatic embedding   =      -0.02968614 Ry
     cavitation energy         =       0.02065046 Ry
     PV energy                 =      -0.08139550 Ry
     correction to one-el term =     192.12707017 Ry

     iteration # 23     ecut=    50.00 Ry     beta= 0.70
     Davidson diagonalization with overlap
     ethr =  6.25E-11,  avg # of iterations =  2.0

     negative rho (up, down):  1.823E-04 0.000E+00

     add environment contribution to local potential
     Polarization accuracy = 3.5E-12, # of iterations =  44

     total cpu time spent up to now is     5898.4 secs

     total energy              =   -3437.61646785 Ry
     estimated scf accuracy    <       0.00000011 Ry
     electrostatic embedding   =      -0.02968504 Ry
     cavitation energy         =       0.02065069 Ry
     PV energy                 =      -0.08139403 Ry
     correction to one-el term =     192.12244587 Ry

     iteration # 24     ecut=    50.00 Ry     beta= 0.70
     Davidson diagonalization with overlap
     ethr =  2.90E-11,  avg # of iterations =  1.0

     negative rho (up, down):  1.754E-04 0.000E+00

     add environment contribution to local potential
     Polarization accuracy = 3.5E-12, # of iterations =  44

     total cpu time spent up to now is     6085.6 secs

     total energy              =   -3437.61646808 Ry
     estimated scf accuracy    <       0.00000009 Ry
     electrostatic embedding   =      -0.02968766 Ry
     cavitation energy         =       0.02065115 Ry
     PV energy                 =      -0.08139360 Ry
     correction to one-el term =     192.11827678 Ry

     iteration # 25     ecut=    50.00 Ry     beta= 0.70
     Davidson diagonalization with overlap
     ethr =  2.57E-11,  avg # of iterations =  1.0

     negative rho (up, down):  1.639E-04 0.000E+00

     add environment contribution to local potential
     Polarization accuracy = 3.5E-12, # of iterations =  44

     total cpu time spent up to now is     6345.6 secs

     total energy              =   -3437.61646827 Ry
     estimated scf accuracy    <       0.00000009 Ry
     electrostatic embedding   =      -0.02968917 Ry
     cavitation energy         =       0.02065138 Ry
     PV energy                 =      -0.08139347 Ry
     correction to one-el term =     192.11638468 Ry

     iteration # 26     ecut=    50.00 Ry     beta= 0.70
     Davidson diagonalization with overlap
     ethr =  2.36E-11,  avg # of iterations =  1.0

     negative rho (up, down):  1.377E-04 0.000E+00

     add environment contribution to local potential
     Polarization accuracy = 3.5E-12, # of iterations =  44

     total cpu time spent up to now is     6509.5 secs

     total energy              =   -3437.61646856 Ry
     estimated scf accuracy    <       0.00000008 Ry
     electrostatic embedding   =      -0.02969298 Ry
     cavitation energy         =       0.02065167 Ry
     PV energy                 =      -0.08139342 Ry
     correction to one-el term =     192.11333279 Ry

     iteration # 27     ecut=    50.00 Ry     beta= 0.70
     Davidson diagonalization with overlap
     ethr =  2.16E-11,  avg # of iterations =  1.0

     negative rho (up, down):  1.274E-04 0.000E+00

     add environment contribution to local potential
     Polarization accuracy = 3.5E-12, # of iterations =  44

     total cpu time spent up to now is     6749.6 secs

     total energy              =   -3437.61646917 Ry
     estimated scf accuracy    <       0.00000007 Ry
     electrostatic embedding   =      -0.02969611 Ry
     cavitation energy         =       0.02065201 Ry
     PV energy                 =      -0.08139366 Ry
     correction to one-el term =     192.11011262 Ry

     iteration # 28     ecut=    50.00 Ry     beta= 0.70
     Davidson diagonalization with overlap
     ethr =  1.92E-11,  avg # of iterations =  1.0

     negative rho (up, down):  1.201E-04 0.000E+00

     add environment contribution to local potential
     Polarization accuracy = 3.5E-12, # of iterations =  44

     total cpu time spent up to now is     6972.4 secs

     total energy              =   -3437.61646959 Ry
     estimated scf accuracy    <       0.00000006 Ry
     electrostatic embedding   =      -0.02969559 Ry
     cavitation energy         =       0.02065208 Ry
     PV energy                 =      -0.08139359 Ry
     correction to one-el term =     192.10899007 Ry

     iteration # 29     ecut=    50.00 Ry     beta= 0.70
     Davidson diagonalization with overlap
     ethr =  1.76E-11,  avg # of iterations =  1.0

     negative rho (up, down):  1.212E-04 0.000E+00

     add environment contribution to local potential
     Polarization accuracy = 3.5E-12, # of iterations =  44

     total cpu time spent up to now is     7284.5 secs

     total energy              =   -3437.61647046 Ry
     estimated scf accuracy    <       0.00000006 Ry
     electrostatic embedding   =      -0.02969379 Ry
     cavitation energy         =       0.02065201 Ry
     PV energy                 =      -0.08139368 Ry
     correction to one-el term =     192.10875183 Ry

     iteration # 30     ecut=    50.00 Ry     beta= 0.70
     Davidson diagonalization with overlap
     ethr =  1.53E-11,  avg # of iterations =  1.0

     negative rho (up, down):  1.274E-04 0.000E+00

     add environment contribution to local potential
     Polarization accuracy = 3.4E-12, # of iterations =  44

     total cpu time spent up to now is     7532.3 secs

     total energy              =   -3437.61647149 Ry
     estimated scf accuracy    <       0.00000006 Ry
     electrostatic embedding   =      -0.02969140 Ry
     cavitation energy         =       0.02065176 Ry
     PV energy                 =      -0.08139397 Ry
     correction to one-el term =     192.11045601 Ry

     iteration # 31     ecut=    50.00 Ry     beta= 0.70
     Davidson diagonalization with overlap
     ethr =  1.52E-11,  avg # of iterations =  3.0

     negative rho (up, down):  1.418E-04 0.000E+00

     add environment contribution to local potential
     Polarization accuracy = 3.4E-12, # of iterations =  44

     total cpu time spent up to now is     7764.7 secs

     total energy              =   -3437.61647508 Ry
     estimated scf accuracy    <       0.00000004 Ry
     electrostatic embedding   =      -0.02968351 Ry
     cavitation energy         =       0.02065129 Ry
     PV energy                 =      -0.08139402 Ry
     correction to one-el term =     192.11330194 Ry

     iteration # 32     ecut=    50.00 Ry     beta= 0.70
     Davidson diagonalization with overlap
     ethr =  1.12E-11,  avg # of iterations =  5.0

     negative rho (up, down):  1.434E-04 0.000E+00

     add environment contribution to local potential
     Polarization accuracy = 3.3E-12, # of iterations =  44

     total cpu time spent up to now is     7994.0 secs

     total energy              =   -3437.61647972 Ry
     estimated scf accuracy    <       0.00000003 Ry
     electrostatic embedding   =      -0.02967973 Ry
     cavitation energy         =       0.02065101 Ry
     PV energy                 =      -0.08139416 Ry
     correction to one-el term =     192.11606783 Ry

     iteration # 33     ecut=    50.00 Ry     beta= 0.70
     Davidson diagonalization with overlap
     ethr =  8.09E-12,  avg # of iterations =  3.0

     negative rho (up, down):  1.556E-04 0.000E+00

     add environment contribution to local potential
     Polarization accuracy = 8.8E-12, # of iterations =  42

     total cpu time spent up to now is     8183.9 secs

     total energy              =   -3437.61648494 Ry
     estimated scf accuracy    <       0.00000002 Ry
     electrostatic embedding   =      -0.02968201 Ry
     cavitation energy         =       0.02065117 Ry
     PV energy                 =      -0.08139426 Ry
     correction to one-el term =     192.11534564 Ry

     iteration # 34     ecut=    50.00 Ry     beta= 0.70
     Davidson diagonalization with overlap
     ethr =  4.98E-12,  avg # of iterations =  5.0

     negative rho (up, down):  1.524E-04 0.000E+00

     add environment contribution to local potential
     Polarization accuracy = 9.1E-12, # of iterations =  43

     total cpu time spent up to now is     8426.4 secs

     total energy              =   -3437.61648872 Ry
     estimated scf accuracy    <          6.7E-09 Ry
     electrostatic embedding   =      -0.02968498 Ry
     cavitation energy         =       0.02065134 Ry
     PV energy                 =      -0.08139408 Ry
     correction to one-el term =     192.11536289 Ry

     iteration # 35     ecut=    50.00 Ry     beta= 0.70
     Davidson diagonalization with overlap
     ethr =  1.81E-12,  avg # of iterations =  2.0

     negative rho (up, down):  1.502E-04 0.000E+00

     add environment contribution to local potential
     Polarization accuracy = 7.9E-12, # of iterations =  43

     total cpu time spent up to now is     8706.0 secs

     total energy              =   -3437.61648958 Ry
     estimated scf accuracy    <          5.7E-09 Ry
     electrostatic embedding   =      -0.02968707 Ry
     cavitation energy         =       0.02065147 Ry
     PV energy                 =      -0.08139399 Ry
     correction to one-el term =     192.11451276 Ry

     iteration # 36     ecut=    50.00 Ry     beta= 0.70
     Davidson diagonalization with overlap
     ethr =  1.54E-12,  avg # of iterations =  2.0

     negative rho (up, down):  1.469E-04 0.000E+00

     add environment contribution to local potential
     Polarization accuracy = 7.2E-12, # of iterations =  43

     total cpu time spent up to now is     8914.8 secs

     total energy              =   -3437.61649058 Ry
     estimated scf accuracy    <          2.1E-09 Ry
     electrostatic embedding   =      -0.02968899 Ry
     cavitation energy         =       0.02065157 Ry
     PV energy                 =      -0.08139392 Ry
     correction to one-el term =     192.11375260 Ry

     iteration # 37     ecut=    50.00 Ry     beta= 0.70
     Davidson diagonalization with overlap
     ethr =  5.80E-13,  avg # of iterations =  2.0

     negative rho (up, down):  1.442E-04 0.000E+00

     add environment contribution to local potential
     Polarization accuracy = 7.6E-12, # of iterations =  43

     total cpu time spent up to now is     9192.8 secs

     total energy              =   -3437.61649109 Ry
     estimated scf accuracy    <          1.1E-09 Ry
     electrostatic embedding   =      -0.02969055 Ry
     cavitation energy         =       0.02065166 Ry
     PV energy                 =      -0.08139386 Ry
     correction to one-el term =     192.11298957 Ry

     iteration # 38     ecut=    50.00 Ry     beta= 0.70
     Davidson diagonalization with overlap
     ethr =  2.91E-13,  avg # of iterations =  4.0

     negative rho (up, down):  1.403E-04 0.000E+00

     the potential shift due to the Gaussian-smeared nuclei is    -1.3500 ev

     total cpu time spent up to now is     9430.0 secs

     End of self-consistent calculation

          k = 0.2500 0.2752 0.0000 ( 34780 PWs)   bands (ev):

   -77.3108 -77.2988 -77.2912 -77.2792 -77.2195 -77.1709 -77.1624 -77.1499
   -77.1249 -77.1126 -77.0560 -77.0058 -47.8289 -47.8169 -47.7405 -47.7285
   -47.6983 -47.5903 -47.4405 -47.4281 -47.3486 -47.3364 -47.2533 -47.2088
   -47.1967 -47.1756 -47.1302 -47.1183 -47.1001 -47.0974 -47.0954 -47.0877
   -47.0842 -47.0832 -47.0732 -47.0636 -47.0514 -47.0280 -47.0186 -47.0147
   -47.0076 -46.9953 -46.9848 -46.9759 -46.9654 -46.9532 -46.9117 -46.8368
   -23.9813 -23.9157 -23.6655 -23.6089 -23.5932 -23.4708 -23.4567 -23.3185
   -23.2545 -23.2095 -22.9101 -22.7348 -22.7046 -22.6758 -22.6407 -22.6341
   -22.5456 -22.5143 -22.5059 -22.4771 -22.3793 -22.3456 -22.3398 -22.3096
   -22.2929 -22.2656 -22.2143 -22.0145 -12.0828 -11.9657 -11.9023 -11.8347
   -11.6919 -11.6591 -11.6334 -11.3644 -11.2804 -11.2706 -11.2401 -11.1162
   -11.0470 -10.9200 -10.8310 -10.8241 -10.7994 -10.7513 -10.6721 -10.5376
   -10.4554 -10.4176 -10.4138 -10.3640 -10.2145 -10.1897 -10.0346  -9.9552
    -9.8683  -9.7105  -9.6885  -9.5174  -9.4982  -9.3045  -9.2552  -9.2407
    -9.2075  -9.0762  -9.0659  -9.0174  -8.9601  -8.7643  -8.7010  -8.6655
    -8.6024  -8.5667  -8.4637  -8.3332  -8.2515  -8.1600  -8.1115  -8.0882
    -8.0079  -7.9998  -7.9406  -7.9113  -7.8515  -7.8204  -7.7404  -7.6910
    -7.6735  -7.4705  -7.4557  -7.3680  -7.2499  -7.2182  -7.1720  -7.0172
    -6.9291  -6.8717  -6.7837  -6.6916  -6.6521  -6.5734  -6.5368  -6.5061
    -6.3603  -6.3338  -6.2855  -6.1957  -6.1554  -6.1077  -6.0252  -5.9978
    -4.7377  -4.6567  -4.6376  -4.6359  -4.5975  -4.5674  -4.5453  -4.4938
    -4.4814  -4.4322  -4.4295  -4.4162  -4.3748  -4.3221  -4.3190  -4.2676
    -4.2632  -4.1630  -4.1577  -4.1079  -3.9727  -3.9611  -3.9213  -3.8404
    -3.6229  -3.6216  -3.5703  -3.3718  -3.0532  -3.0370  -2.9852  -2.7784
    -2.6976  -2.6454  -2.5078  -2.4092  -1.9060  -1.8134  -1.5464  -1.4851
    -1.4117  -1.3996  -0.9907  -0.6348  -0.5232  -0.3230  -0.1401   0.0142
     0.0608   0.1292   0.1539   0.2443   0.4049   0.6197   0.6822   1.0740
     1.1155   1.2145   1.2369   1.2512   1.3397

          k =-0.2500 0.2752 0.0000 ( 34780 PWs)   bands (ev):

   -77.3108 -77.2988 -77.2912 -77.2792 -77.2195 -77.1709 -77.1624 -77.1499
   -77.1249 -77.1126 -77.0560 -77.0058 -47.8289 -47.8169 -47.7405 -47.7285
   -47.6983 -47.5903 -47.4405 -47.4281 -47.3486 -47.3364 -47.2533 -47.2089
   -47.1968 -47.1757 -47.1298 -47.1180 -47.1001 -47.0971 -47.0948 -47.0877
   -47.0835 -47.0829 -47.0732 -47.0635 -47.0514 -47.0305 -47.0195 -47.0162
   -47.0071 -46.9948 -46.9847 -46.9759 -46.9647 -46.9524 -46.9118 -46.8368
   -23.9824 -23.9172 -23.6673 -23.6081 -23.5925 -23.4652 -23.4510 -23.3208
   -23.2586 -23.2115 -22.9086 -22.7322 -22.7059 -22.6765 -22.6452 -22.6345
   -22.5522 -22.5115 -22.5005 -22.4780 -22.3779 -22.3480 -22.3374 -22.3123
   -22.2884 -22.2677 -22.2138 -22.0144 -12.0826 -11.9674 -11.9040 -11.8449
   -11.7109 -11.6271 -11.5938 -11.3746 -11.3154 -11.2911 -11.2468 -11.1048
   -11.0457 -10.9271 -10.8405 -10.8171 -10.7490 -10.7202 -10.6897 -10.5647
   -10.4945 -10.4214 -10.4117 -10.3593 -10.2049 -10.1948 -10.0290 -10.0106
    -9.8396  -9.6939  -9.5755  -9.5586  -9.5035  -9.2976  -9.2589  -9.1999
    -9.1942  -9.1041  -9.0344  -9.0185  -8.9969  -8.8446  -8.6974  -8.6686
    -8.6504  -8.5074  -8.4130  -8.3172  -8.2992  -8.1816  -8.1216  -8.1179
    -8.0295  -8.0090  -7.9478  -7.9329  -7.8569  -7.7864  -7.6792  -7.6689
    -7.5802  -7.4945  -7.4469  -7.3889  -7.2778  -7.2686  -7.2229  -6.9627
    -6.8845  -6.8461  -6.7748  -6.7429  -6.6984  -6.5499  -6.5321  -6.5014
    -6.3988  -6.3185  -6.2727  -6.2277  -6.1755  -6.0431  -6.0253  -5.9775
    -4.7615  -4.7021  -4.6630  -4.6221  -4.5827  -4.5573  -4.5344  -4.5114
    -4.4781  -4.4430  -4.4307  -4.3935  -4.3584  -4.3264  -4.3208  -4.2619
    -4.2369  -4.1816  -4.1279  -4.1200  -4.0005  -3.9660  -3.9311  -3.8295
    -3.6374  -3.5977  -3.5598  -3.3722  -3.0547  -3.0415  -2.9819  -2.7743
    -2.7019  -2.6503  -2.5068  -2.4106  -1.9058  -1.8087  -1.5452  -1.4771
    -1.4111  -1.3983  -0.9922  -0.6392  -0.5249  -0.3229  -0.1351   0.0202
     0.0605   0.1318   0.1450   0.2407   0.4042   0.6271   0.6819   1.0820
     1.1084   1.2023   1.2354   1.2436   1.3402

     the Fermi energy is    -3.7906 ev

!    total energy              =   -3437.61649129 Ry
     estimated scf accuracy    <          8.2E-10 Ry
     smearing contrib. (-TS)   =       0.09001197 Ry
     internal energy E=F+TS    =   -3437.70650326 Ry

     The total energy is F=E-TS. E is the sum of the following terms:
     one-electron contribution =  -25647.23131394 Ry
     hartree contribution      =   12810.43314032 Ry
     xc contribution           =    -450.18083144 Ry
     ewald contribution        =    9923.72163178 Ry
     one-center paw contrib.   =    -266.47071773 Ry
     electrostatic embedding   =      -0.02969293 Ry
     cavitation energy         =       0.02065177 Ry
     PV energy                 =      -0.08139375 Ry
     correction to one-el term =     192.11202266 Ry

     WARNING: you are using the parabolic pbc correction;
              the potential shift above must be added to 
              band and Fermi energies.

     convergence has been achieved in  38 iterations

     negative rho (up, down):  1.403E-04 0.000E+00

     Forces acting on atoms (cartesian axes, Ry/au):

     atom    1 type  1   force =     0.03836408   -0.00148268   -0.01954577
     atom    2 type  1   force =     0.03173967    0.00819179   -0.02087955
     atom    3 type  1   force =     0.00122857   -0.07004917    0.07535966
     atom    4 type  1   force =     0.00098457   -0.13559312    0.08605816
     atom    5 type  2   force =    -0.00152356   -0.00743046   -0.00543775
     atom    6 type  2   force =     0.00006373   -0.00858137   -0.00482467
     atom    7 type  1   force =    -0.00077866    0.09781102    0.00316652
     atom    8 type  1   force =     0.00084225    0.06594185    0.00111178
     atom    9 type  2   force =    -0.00963190    0.00897379    0.00009584
     atom   10 type  2   force =     0.01359286    0.00261141   -0.00018738
     atom   11 type  1   force =     0.00116904   -0.08591852   -0.00569156
     atom   12 type  1   force =     0.00083065   -0.05287993   -0.00629495
     atom   13 type  1   force =     0.00032317    0.00057072   -0.00126669
     atom   14 type  1   force =     0.00043505   -0.00013473    0.00114323
     atom   15 type  1   force =    -0.00149199   -0.00112042    0.02442388
     atom   16 type  1   force =    -0.00114812   -0.00084499   -0.00462075
     atom   17 type  2   force =    -0.01978830   -0.00053834    0.00000000
     atom   18 type  2   force =     0.01731291    0.00070381    0.00000000
     atom   19 type  1   force =     0.00434427   -0.09656612    0.00000000
     atom   20 type  1   force =    -0.00553957   -0.04767544    0.00000000
     atom   21 type  2   force =     0.01525397    0.00207842    0.00000000
     atom   22 type  2   force =    -0.01114213    0.00240739    0.00000000
     atom   23 type  1   force =     0.00398398    0.09715218    0.00000000
     atom   24 type  1   force =    -0.00508645    0.04742851    0.00000000
     atom   25 type  1   force =    -0.00149199   -0.00112042   -0.02442388
     atom   26 type  1   force =    -0.00114812   -0.00084499    0.00462075
     atom   27 type  1   force =     0.00032317    0.00057072    0.00126669
     atom   28 type  1   force =     0.00043505   -0.00013473   -0.00114323
     atom   29 type  2   force =    -0.00152356   -0.00743046    0.00543775
     atom   30 type  2   force =     0.00006373   -0.00858137    0.00482467
     atom   31 type  1   force =    -0.00077866    0.09781102   -0.00316652
     atom   32 type  1   force =     0.00084225    0.06594185   -0.00111178
     atom   33 type  2   force =    -0.00963190    0.00897379   -0.00009584
     atom   34 type  2   force =     0.01359286    0.00261141    0.00018738
     atom   35 type  1   force =     0.00116904   -0.08591852    0.00569156
     atom   36 type  1   force =     0.00083065   -0.05287993    0.00629495
     atom   37 type  1   force =     0.00122857   -0.07004917   -0.07535966
     atom   38 type  1   force =     0.00098457   -0.13559312   -0.08605816
     atom   39 type  1   force =     0.03836408   -0.00148268    0.01954577
     atom   40 type  1   force =     0.03173967    0.00819179    0.02087955
     atom   41 type  3   force =    -0.03871031    0.00113917    0.01051580
     atom   42 type  3   force =    -0.03871031    0.00113917   -0.01051580
     atom   43 type  3   force =    -0.03219214   -0.00296395    0.01122273
     atom   44 type  3   force =    -0.03219214   -0.00296395   -0.01122273
     atom   45 type  3   force =    -0.00117846    0.06145036   -0.06401507
     atom   46 type  3   force =    -0.00117846    0.06145036    0.06401507
     atom   47 type  3   force =    -0.00258784    0.11781399   -0.07595692
     atom   48 type  3   force =    -0.00258784    0.11781399    0.07595692
     The non-local contrib.  to forces
     atom    1 type  1   force =     1.72807367    0.02064580    0.41063135
     atom    2 type  1   force =     1.70296584    0.25344726    0.22954422
     atom    3 type  1   force =    -0.01464946    1.25971396   -0.41046907
     atom    4 type  1   force =     0.00403760    1.39653053    0.00238525
     atom    5 type  2   force =     0.00173841    0.01330209    0.04085729
     atom    6 type  2   force =    -0.00300306    0.01208877    0.04351185
     atom    7 type  1   force =    -0.02368015   -0.06681265   -0.04347905
     atom    8 type  1   force =     0.00816524   -0.12066581   -0.02877033
     atom    9 type  2   force =    -0.00094441    0.00516275    0.03145985
     atom   10 type  2   force =     0.00236656    0.00547508    0.05091577
     atom   11 type  1   force =     0.01905110    0.02145983    0.07343548
     atom   12 type  1   force =    -0.02471952    0.07896610    0.08222565
     atom   13 type  1   force =     0.01752070    0.04998511    0.00618858
     atom   14 type  1   force =    -0.00921715    0.03150472   -0.00929701
     atom   15 type  1   force =     0.00973368   -0.03630523    0.05440562
     atom   16 type  1   force =    -0.01845767   -0.02419585   -0.07900930
     atom   17 type  2   force =     0.00359856   -0.00037766    0.00000000
     atom   18 type  2   force =    -0.00799425    0.00092225    0.00000000
     atom   19 type  1   force =    -0.03629295    0.03546688    0.00000000
     atom   20 type  1   force =     0.03426723    0.10534435    0.00000000
     atom   21 type  2   force =    -0.00781707    0.00243390    0.00000000
     atom   22 type  2   force =     0.02034428    0.00226197    0.00000000
     atom   23 type  1   force =    -0.02396929   -0.03031752    0.00000000
     atom   24 type  1   force =     0.02261947   -0.09915412    0.00000000
     atom   25 type  1   force =     0.00973368   -0.03630523   -0.05440562
     atom   26 type  1   force =    -0.01845767   -0.02419585    0.07900930
     atom   27 type  1   force =     0.01752070    0.04998511   -0.00618858
     atom   28 type  1   force =    -0.00921715    0.03150472    0.00929701
     atom   29 type  2   force =     0.00173841    0.01330209   -0.04085729
     atom   30 type  2   force =    -0.00300306    0.01208877   -0.04351185
     atom   31 type  1   force =    -0.02368015   -0.06681265    0.04347905
     atom   32 type  1   force =     0.00816524   -0.12066581    0.02877033
     atom   33 type  2   force =    -0.00094441    0.00516275   -0.03145985
     atom   34 type  2   force =     0.00236656    0.00547508   -0.05091577
     atom   35 type  1   force =     0.01905110    0.02145983   -0.07343548
     atom   36 type  1   force =    -0.02471952    0.07896610   -0.08222565
     atom   37 type  1   force =    -0.01464946    1.25971396    0.41046907
     atom   38 type  1   force =     0.00403760    1.39653053   -0.00238525
     atom   39 type  1   force =     1.72807367    0.02064580   -0.41063135
     atom   40 type  1   force =     1.70296584    0.25344726   -0.22954422
     atom   41 type  3   force =    -0.09106304   -0.00219739    0.03276856
     atom   42 type  3   force =    -0.09106304   -0.00219739   -0.03276856
     atom   43 type  3   force =    -0.09013804   -0.01440168    0.04072876
     atom   44 type  3   force =    -0.09013804   -0.01440168   -0.04072876
     atom   45 type  3   force =     0.00140730   -0.08426839    0.09462705
     atom   46 type  3   force =     0.00140730   -0.08426839   -0.09462705
     atom   47 type  3   force =     0.00034346   -0.10965904    0.07360618
     atom   48 type  3   force =     0.00034346   -0.10965904   -0.07360618
     The ionic contribution  to forces
     atom    1 type  1   force =    -2.94631624    0.56675184  -96.47560855
     atom    2 type  1   force =    -2.40075688    0.34749178  -95.90469102
     atom    3 type  1   force =    -0.10737630   -3.21447993  -91.66409523
     atom    4 type  1   force =     0.15095088   -4.15477968  -92.34397339
     atom    5 type  2   force =    -0.00904483   -2.17353053 -171.25266809
     atom    6 type  2   force =    -0.00494974   -2.14838699 -170.76572793
     atom    7 type  1   force =    -0.07822690    1.54336289  -62.52252284
     atom    8 type  1   force =    -0.00945625    1.39609476  -63.03525451
     atom    9 type  2   force =    -0.97371867    2.28014843 -173.37935366
     atom   10 type  2   force =     0.89496445    2.44588007 -168.92342389
     atom   11 type  1   force =    -0.01253633   -0.80077803  -66.43142864
     atom   12 type  1   force =     0.07039773   -0.61767290  -67.05579262
     atom   13 type  1   force =    -0.28714599   -0.52896670  -38.47729977
     atom   14 type  1   force =     0.22428239   -0.48142523  -38.32688121
     atom   15 type  1   force =    -0.23954828    0.30123307  -26.43522069
     atom   16 type  1   force =     0.22129066    0.19395395  -24.89103697
     atom   17 type  2   force =    -0.58090486    0.15436466   -0.00045560
     atom   18 type  2   force =     0.52560758    0.14958034   -0.00045132
     atom   19 type  1   force =     0.35437160   -1.02337097   -0.00008594
     atom   20 type  1   force =    -0.30037452   -0.56098567   -0.00008524
     atom   21 type  2   force =     0.07679421   -0.06280072   -0.00026082
     atom   22 type  2   force =     0.07059565   -0.04345173   -0.00025734
     atom   23 type  1   force =     0.33187441    1.00300268   -0.00008316
     atom   24 type  1   force =    -0.29703836    0.50781526   -0.00008257
     atom   25 type  1   force =    -0.23954998    0.30123547   26.43506046
     atom   26 type  1   force =     0.22128901    0.19395413   24.89081349
     atom   27 type  1   force =    -0.28715053   -0.52897012   38.47759771
     atom   28 type  1   force =     0.22428477   -0.48142532   38.32717331
     atom   29 type  2   force =    -0.00904561   -2.17352844  171.25294878
     atom   30 type  2   force =    -0.00494722   -2.14838472  170.76600776
     atom   31 type  1   force =    -0.07822448    1.54333089   62.52258762
     atom   32 type  1   force =    -0.00945600    1.39606342   63.03531813
     atom   33 type  2   force =    -0.97372854    2.28015388  173.37949040
     atom   34 type  2   force =     0.89496169    2.44588443  168.92354931
     atom   35 type  1   force =    -0.01253446   -0.80074619   66.43149373
     atom   36 type  1   force =     0.07039822   -0.61764160   67.05585622
     atom   37 type  1   force =    -0.10737387   -3.21476208   91.66405842
     atom   38 type  1   force =     0.15095055   -4.15506406   92.34406098
     atom   39 type  1   force =    -2.94638046    0.56675541   96.47573114
     atom   40 type  1   force =    -2.40083312    0.34748685   95.90480536
     atom   41 type  3   force =     2.70303247    0.20517061  -16.32161408
     atom   42 type  3   force =     2.70310076    0.20517260   16.32162241
     atom   43 type  3   force =     2.75056584    0.59975229  -16.46712232
     atom   44 type  3   force =     2.75064702    0.59976530   16.46714083
     atom   45 type  3   force =    -0.07056281    1.88881708  -18.04522394
     atom   46 type  3   force =    -0.07056662    1.88908888   18.04537663
     atom   47 type  3   force =     0.03369404    2.28928826  -17.48626438
     atom   48 type  3   force =     0.03369390    2.28955236   17.48627302
     The local contribution  to forces
     atom    1 type  1   force =     1.25730432   -0.52296523   96.03646788
     atom    2 type  1   force =     0.72100256   -0.54292279   95.65456774
     atom    3 type  1   force =     0.12298405    1.84149917   92.17010503
     atom    4 type  1   force =    -0.15881012    2.58556790   92.41818290
     atom    5 type  2   force =     0.01654730    2.11872012  171.20430021
     atom    6 type  2   force =    -0.00087364    2.09295091  170.71899508
     atom    7 type  1   force =     0.10381270   -1.37311411   62.57760766
     atom    8 type  1   force =     0.00031225   -1.20457971   63.07587729
     atom    9 type  2   force =     0.96590846   -2.24208230  173.34549761
     atom   10 type  2   force =    -0.88834783   -2.41931739  168.86583100
     atom   11 type  1   force =    -0.00254102    0.69665723   66.33883850
     atom   12 type  1   force =    -0.04588397    0.49095623   66.95570393
     atom   13 type  1   force =     0.27035454    0.47638913   38.47016928
     atom   14 type  1   force =    -0.21504884    0.44659544   38.33535486
     atom   15 type  1   force =     0.22859214   -0.26457946   26.40576714
     atom   16 type  1   force =    -0.20437693   -0.16924674   24.96367736
     atom   17 type  2   force =     0.55774886   -0.15693493   -0.00584101
     atom   18 type  2   force =    -0.50052336   -0.15214572   -0.00582992
     atom   19 type  1   force =    -0.31378823    0.89000560   -0.00247164
     atom   20 type  1   force =     0.26063822    0.40772856   -0.00245711
     atom   21 type  2   force =    -0.05315294    0.06480851   -0.00608662
     atom   22 type  2   force =    -0.10261974    0.04597391   -0.00606250
     atom   23 type  1   force =    -0.30387393   -0.87473623   -0.00247714
     atom   24 type  1   force =     0.26929102   -0.36159686   -0.00246276
     atom   25 type  1   force =     0.22859280   -0.26458491  -26.40749486
     atom   26 type  1   force =    -0.20438526   -0.16924727  -24.96544161
     atom   27 type  1   force =     0.27035321    0.47639514  -38.47194935
     atom   28 type  1   force =    -0.21504856    0.44660353  -38.33714208
     atom   29 type  2   force =     0.01654363    2.11874537 -171.21041433
     atom   30 type  2   force =    -0.00086826    2.09297607 -170.72509338
     atom   31 type  1   force =     0.10380890   -1.37310399  -62.58007937
     atom   32 type  1   force =     0.00031636   -1.20457055  -63.07834070
     atom   33 type  2   force =     0.96591455   -2.24211630 -173.35128187
     atom   34 type  2   force =    -0.88835607   -2.41937340 -168.87165796
     atom   35 type  1   force =    -0.00255240    0.69663419  -66.34131757
     atom   36 type  1   force =    -0.04587212    0.49093491  -66.95817259
     atom   37 type  1   force =     0.12298339    1.84163490  -92.17387436
     atom   38 type  1   force =    -0.15880919    2.58572009  -92.42200193
     atom   39 type  1   force =     1.25732437   -0.52298352  -96.03801382
     atom   40 type  1   force =     0.72102458   -0.54294812  -95.65615186
     atom   41 type  3   force =    -2.65476180   -0.19131731   16.30600629
     atom   42 type  3   force =    -2.65476180   -0.19131731  -16.30600629
     atom   43 type  3   force =    -2.70159271   -0.58119116   16.44873358
     atom   44 type  3   force =    -2.70159271   -0.58119116  -16.44873358
     atom   45 type  3   force =     0.06743537   -1.75099749   17.90705056
     atom   46 type  3   force =     0.06743537   -1.75099749  -17.90705056
     atom   47 type  3   force =    -0.03897749   -2.06797425   17.34281255
     atom   48 type  3   force =    -0.03897749   -2.06797425  -17.34281255
     The core correction contribution to forces
     atom    1 type  1   force =    -0.01779116   -0.00019596   -0.00409787
     atom    2 type  1   force =    -0.01746655   -0.00268697   -0.00242521
     atom    3 type  1   force =     0.00011581   -0.01182547    0.00277376
     atom    4 type  1   force =    -0.00005136   -0.01224006   -0.00159818
     atom    5 type  2   force =     0.00000000    0.00000000    0.00000000
     atom    6 type  2   force =     0.00000000    0.00000000    0.00000000
     atom    7 type  1   force =     0.00031730   -0.00092836    0.00041342
     atom    8 type  1   force =    -0.00008291   -0.00006681    0.00028146
     atom    9 type  2   force =     0.00000000    0.00000000    0.00000000
     atom   10 type  2   force =     0.00000000    0.00000000    0.00000000
     atom   11 type  1   force =    -0.00014874    0.00136205   -0.00064839
     atom   12 type  1   force =     0.00023945    0.00046390   -0.00070188
     atom   13 type  1   force =    -0.00017731   -0.00056364    0.00001027
     atom   14 type  1   force =     0.00010449   -0.00035760    0.00011014
     atom   15 type  1   force =    -0.00011437    0.00040138   -0.00131898
     atom   16 type  1   force =     0.00022073    0.00029981    0.00045196
     atom   17 type  2   force =     0.00000000    0.00000000    0.00000000
     atom   18 type  2   force =     0.00000000    0.00000000    0.00000000
     atom   19 type  1   force =     0.00030344    0.00106890   -0.00000224
     atom   20 type  1   force =    -0.00031420   -0.00005557   -0.00000215
     atom   21 type  2   force =     0.00000000    0.00000000    0.00000000
     atom   22 type  2   force =     0.00000000    0.00000000    0.00000000
     atom   23 type  1   force =     0.00018214   -0.00111617   -0.00000219
     atom   24 type  1   force =    -0.00018247    0.00001302   -0.00000209
     atom   25 type  1   force =    -0.00011439    0.00040146    0.00131686
     atom   26 type  1   force =     0.00022069    0.00030000   -0.00045411
     atom   27 type  1   force =    -0.00017731   -0.00056374   -0.00001248
     atom   28 type  1   force =     0.00010450   -0.00035767   -0.00011233
     atom   29 type  2   force =     0.00000000    0.00000000    0.00000000
     atom   30 type  2   force =     0.00000000    0.00000000    0.00000000
     atom   31 type  1   force =     0.00031730   -0.00092823   -0.00041554
     atom   32 type  1   force =    -0.00008290   -0.00006664   -0.00028350
     atom   33 type  2   force =     0.00000000    0.00000000    0.00000000
     atom   34 type  2   force =     0.00000000    0.00000000    0.00000000
     atom   35 type  1   force =    -0.00014876    0.00136195    0.00064621
     atom   36 type  1   force =     0.00023952    0.00046377    0.00069972
     atom   37 type  1   force =     0.00011582   -0.01182737   -0.00277821
     atom   38 type  1   force =    -0.00005136   -0.01224180    0.00159442
     atom   39 type  1   force =    -0.01779203   -0.00019602    0.00409576
     atom   40 type  1   force =    -0.01746737   -0.00268709    0.00242281
     atom   41 type  3   force =     0.00000000    0.00000000    0.00000000
     atom   42 type  3   force =     0.00000000    0.00000000    0.00000000
     atom   43 type  3   force =     0.00000000    0.00000000    0.00000000
     atom   44 type  3   force =     0.00000000    0.00000000    0.00000000
     atom   45 type  3   force =     0.00000000    0.00000000    0.00000000
     atom   46 type  3   force =     0.00000000    0.00000000    0.00000000
     atom   47 type  3   force =     0.00000000    0.00000000    0.00000000
     atom   48 type  3   force =     0.00000000    0.00000000    0.00000000
     The Hubbard contrib.    to forces
     atom    1 type  1   force =     0.00000000    0.00000000    0.00000000
     atom    2 type  1   force =     0.00000000    0.00000000    0.00000000
     atom    3 type  1   force =     0.00000000    0.00000000    0.00000000
     atom    4 type  1   force =     0.00000000    0.00000000    0.00000000
     atom    5 type  2   force =     0.00000000    0.00000000    0.00000000
     atom    6 type  2   force =     0.00000000    0.00000000    0.00000000
     atom    7 type  1   force =     0.00000000    0.00000000    0.00000000
     atom    8 type  1   force =     0.00000000    0.00000000    0.00000000
     atom    9 type  2   force =     0.00000000    0.00000000    0.00000000
     atom   10 type  2   force =     0.00000000    0.00000000    0.00000000
     atom   11 type  1   force =     0.00000000    0.00000000    0.00000000
     atom   12 type  1   force =     0.00000000    0.00000000    0.00000000
     atom   13 type  1   force =     0.00000000    0.00000000    0.00000000
     atom   14 type  1   force =     0.00000000    0.00000000    0.00000000
     atom   15 type  1   force =     0.00000000    0.00000000    0.00000000
     atom   16 type  1   force =     0.00000000    0.00000000    0.00000000
     atom   17 type  2   force =     0.00000000    0.00000000    0.00000000
     atom   18 type  2   force =     0.00000000    0.00000000    0.00000000
     atom   19 type  1   force =     0.00000000    0.00000000    0.00000000
     atom   20 type  1   force =     0.00000000    0.00000000    0.00000000
     atom   21 type  2   force =     0.00000000    0.00000000    0.00000000
     atom   22 type  2   force =     0.00000000    0.00000000    0.00000000
     atom   23 type  1   force =     0.00000000    0.00000000    0.00000000
     atom   24 type  1   force =     0.00000000    0.00000000    0.00000000
     atom   25 type  1   force =     0.00000000    0.00000000    0.00000000
     atom   26 type  1   force =     0.00000000    0.00000000    0.00000000
     atom   27 type  1   force =     0.00000000    0.00000000    0.00000000
     atom   28 type  1   force =     0.00000000    0.00000000    0.00000000
     atom   29 type  2   force =     0.00000000    0.00000000    0.00000000
     atom   30 type  2   force =     0.00000000    0.00000000    0.00000000
     atom   31 type  1   force =     0.00000000    0.00000000    0.00000000
     atom   32 type  1   force =     0.00000000    0.00000000    0.00000000
     atom   33 type  2   force =     0.00000000    0.00000000    0.00000000
     atom   34 type  2   force =     0.00000000    0.00000000    0.00000000
     atom   35 type  1   force =     0.00000000    0.00000000    0.00000000
     atom   36 type  1   force =     0.00000000    0.00000000    0.00000000
     atom   37 type  1   force =     0.00000000    0.00000000    0.00000000
     atom   38 type  1   force =     0.00000000    0.00000000    0.00000000
     atom   39 type  1   force =     0.00000000    0.00000000    0.00000000
     atom   40 type  1   force =     0.00000000    0.00000000    0.00000000
     atom   41 type  3   force =     0.00000000    0.00000000    0.00000000
     atom   42 type  3   force =     0.00000000    0.00000000    0.00000000
     atom   43 type  3   force =     0.00000000    0.00000000    0.00000000
     atom   44 type  3   force =     0.00000000    0.00000000    0.00000000
     atom   45 type  3   force =     0.00000000    0.00000000    0.00000000
     atom   46 type  3   force =     0.00000000    0.00000000    0.00000000
     atom   47 type  3   force =     0.00000000    0.00000000    0.00000000
     atom   48 type  3   force =     0.00000000    0.00000000    0.00000000
     The SCF correction term to forces
     atom    1 type  1   force =     0.00000540   -0.00000125    0.00000087
     atom    2 type  1   force =    -0.00000015    0.00000045    0.00001621
     atom    3 type  1   force =     0.00000434    0.00000397    0.00000071
     atom    4 type  1   force =    -0.00000343    0.00000531    0.00000390
     atom    5 type  2   force =     0.00001725    0.00000771    0.00001746
     atom    6 type  2   force =    -0.00001789    0.00000696    0.00001876
     atom    7 type  1   force =     0.00001511    0.00000452    0.00000640
     atom    8 type  1   force =    -0.00001570    0.00000655    0.00000625
     atom    9 type  2   force =     0.00000776   -0.00000779    0.00001586
     atom   10 type  2   force =    -0.00000510   -0.00000750    0.00001979
     atom   11 type  1   force =     0.00001534   -0.00000715    0.00000794
     atom   12 type  1   force =    -0.00001602   -0.00000931    0.00000748
     atom   13 type  1   force =     0.00000364    0.00000193    0.00001185
     atom   14 type  1   force =    -0.00000369    0.00000166    0.00002427
     atom   15 type  1   force =     0.00000622   -0.00000112    0.00001538
     atom   16 type  1   force =    -0.00000659   -0.00000088    0.00000455
     atom   17 type  2   force =     0.00000843    0.00000125    0.00001456
     atom   18 type  2   force =    -0.00000703    0.00000099    0.00001441
     atom   19 type  1   force =     0.00001721    0.00000043    0.00000521
     atom   20 type  1   force =    -0.00001730   -0.00000633    0.00000521
     atom   21 type  2   force =     0.00002524   -0.00000095    0.00001445
     atom   22 type  2   force =    -0.00002385   -0.00000064    0.00001448
     atom   23 type  1   force =     0.00001735   -0.00000006    0.00000530
     atom   24 type  1   force =    -0.00001758    0.00000658    0.00000530
     atom   25 type  1   force =     0.00000621   -0.00000100   -0.00000877
     atom   26 type  1   force =    -0.00000658   -0.00000077    0.00000254
     atom   27 type  1   force =     0.00000363    0.00000176   -0.00000872
     atom   28 type  1   force =    -0.00000368    0.00000150   -0.00002118
     atom   29 type  2   force =     0.00001710    0.00000710   -0.00002163
     atom   30 type  2   force =    -0.00001774    0.00000637   -0.00002289
     atom   31 type  1   force =     0.00001507    0.00000433   -0.00000782
     atom   32 type  1   force =    -0.00001566    0.00000638   -0.00000769
     atom   33 type  2   force =     0.00000768   -0.00000721   -0.00002083
     atom   34 type  2   force =    -0.00000500   -0.00000694   -0.00002424
     atom   35 type  1   force =     0.00001530   -0.00000680   -0.00000956
     atom   36 type  1   force =    -0.00001598   -0.00000898   -0.00000913
     atom   37 type  1   force =     0.00000432    0.00000381   -0.00000315
     atom   38 type  1   force =    -0.00000340    0.00000513   -0.00000628
     atom   39 type  1   force =     0.00000538   -0.00000118   -0.00000262
     atom   40 type  1   force =    -0.00000014    0.00000052   -0.00001798
     atom   41 type  3   force =     0.00000080   -0.00000017    0.00000089
     atom   42 type  3   force =     0.00000081   -0.00000016   -0.00000119
     atom   43 type  3   force =    -0.00000107   -0.00000012    0.00000184
     atom   44 type  3   force =    -0.00000107   -0.00000011   -0.00000215
     atom   45 type  3   force =     0.00000044    0.00000007    0.00000067
     atom   46 type  3   force =     0.00000044    0.00000006   -0.00000100
     atom   47 type  3   force =    -0.00000036    0.00000063    0.00000146
     atom   48 type  3   force =    -0.00000036    0.00000062   -0.00000180

     Total force =     0.463970     Total SCF correction =     0.000119

     BFGS Geometry Optimization
     Energy error            =      0.0E+00 Ry
     Gradient error          =      1.4E-01 Ry/Bohr

     number of scf cycles    =   1
     number of bfgs steps    =   0

     energy             new  =   -3437.6164912869 Ry

     new trust radius        =       0.1606003411 bohr
     new conv_thr            =       0.0000000010 Ry


ATOMIC_POSITIONS (crystal)
O             0.0050605922        0.4803778583        0.2673721884
O             0.4900690084        0.4615342003        0.2695749538
O            -0.0023067566        0.0037030565        0.3029682114
O             0.4987042894        0.0071300065        0.3021733297
Ru            0.2483364629        0.0021682595        0.3582133310
Ru            0.7480201920        0.0019856832        0.3583589613
O             0.2477154168        0.3129172225        0.3590940222
O             0.7500301194        0.3139155760        0.3585318631
Ru           -0.0004730727        0.5019391772        0.3551853818
Ru            0.4971746384        0.5015156333        0.3583048194
O             0.2509450367        0.6915587061        0.3547169284
O             0.7454549682        0.6904681816        0.3538800456
O            -0.0013091767       -0.0032053858        0.4115434067
O             0.4981250855       -0.0011776080        0.4112943250
O            -0.0005479853        0.5053658279        0.4423248071
O             0.5004891167        0.5029849603        0.4458101081
Ru            0.0002534375        0.0010701892        0.5000010000
Ru            0.4983421056        0.0012485723        0.5000010000
O             0.2477175529        0.1893964828        0.5000010000
O             0.7500758172        0.1885126928        0.5000010000
Ru            0.2455388824        0.5016308228        0.5000010000
Ru            0.7541702404        0.5018648842        0.5000010000
O             0.2488318216        0.8136295957        0.5000010000
O             0.7493458926        0.8149792264        0.5000010000
O            -0.0005479853        0.5053658279        0.5576761929
O             0.5004891167        0.5029849603        0.5541908919
O            -0.0013091767       -0.0032053858        0.5884575933
O             0.4981250855       -0.0011776080        0.5887066750
Ru            0.2483364629        0.0021682595        0.6417876690
Ru            0.7480201920        0.0019856832        0.6416420387
O             0.2477154168        0.3129172225        0.6409069778
O             0.7500301194        0.3139155760        0.6414691369
Ru           -0.0004730727        0.5019391772        0.6448156182
Ru            0.4971746384        0.5015156333        0.6416961806
O             0.2509450367        0.6915587061        0.6452840716
O             0.7454549682        0.6904681816        0.6461209544
O            -0.0023067566        0.0037030565        0.6970337886
O             0.4987042894        0.0071300065        0.6978286703
O             0.0050605922        0.4803778583        0.7326288116
O             0.4900690084        0.4615342003        0.7304260462
H             0.1445174571        0.4840714477        0.2535487105
H             0.1445174571        0.4840714477        0.7464512895
H             0.6237338821        0.4843428450        0.2528043144
H             0.6237338821        0.4843428450        0.7471956856
H            -0.0039124495        0.1214149440        0.2683959267
H            -0.0039124495        0.1214149440        0.7316040733
H             0.4983052996        0.1592561749        0.2754961581
H             0.4983052996        0.1592561749        0.7245038419



     Writing config-only to output data dir /storage/home/mgm6007/ixd4/Maria/StrainJin_Files/RuO2-110-0-0123/RuO2-110-0-0123.save/
     NEW-OLD atomic charge density approx. for the potential

     Check: negative core charge=   -0.000001

     negative rho (up, down):  1.285E-04 0.000E+00

     add environment contribution to local potential
     Polarization accuracy = 8.6E-12, # of iterations =  43

     total cpu time spent up to now is     9617.5 secs

     per-process dynamical memory:   215.9 Mb

     Self-consistent Calculation

     iteration #  1     ecut=    50.00 Ry     beta= 0.70
     Davidson diagonalization with overlap
     ethr =  1.00E-06,  avg # of iterations = 11.0

     negative rho (up, down):  5.173E-05 0.000E+00

     add environment contribution to local potential
     Polarization accuracy = 8.6E-12, # of iterations =  43

     total cpu time spent up to now is     9847.3 secs

     total energy              =   -3437.65851791 Ry
     estimated scf accuracy    <       0.08247517 Ry
     electrostatic embedding   =      -0.02927716 Ry
     cavitation energy         =       0.02066669 Ry
     PV energy                 =      -0.08146153 Ry
     correction to one-el term =     192.32916224 Ry

     iteration #  2     ecut=    50.00 Ry     beta= 0.70
     Davidson diagonalization with overlap
     ethr =  2.24E-05,  avg # of iterations =  2.0

     negative rho (up, down):  4.667E-05 0.000E+00

     add environment contribution to local potential
     Polarization accuracy = 8.7E-12, # of iterations =  43

     total cpu time spent up to now is    10051.1 secs

     total energy              =   -3437.66335031 Ry
     estimated scf accuracy    <       0.04353486 Ry
     electrostatic embedding   =      -0.02962116 Ry
     cavitation energy         =       0.02065141 Ry
     PV energy                 =      -0.08146426 Ry
     correction to one-el term =     192.22935986 Ry

     iteration #  3     ecut=    50.00 Ry     beta= 0.70
     Davidson diagonalization with overlap
     ethr =  1.18E-05,  avg # of iterations =  1.0

     negative rho (up, down):  4.083E-05 0.000E+00

     add environment contribution to local potential
     Polarization accuracy = 9.2E-12, # of iterations =  43

     total cpu time spent up to now is    10247.5 secs

     total energy              =   -3437.66495602 Ry
     estimated scf accuracy    <       0.01871736 Ry
     electrostatic embedding   =      -0.02977094 Ry
     cavitation energy         =       0.02064293 Ry
     PV energy                 =      -0.08147526 Ry
     correction to one-el term =     192.12168070 Ry

     iteration #  4     ecut=    50.00 Ry     beta= 0.70
     Davidson diagonalization with overlap
     ethr =  5.09E-06,  avg # of iterations =  1.0

     negative rho (up, down):  3.767E-05 0.000E+00

     add environment contribution to local potential
     Polarization accuracy = 9.3E-12, # of iterations =  43

     total cpu time spent up to now is    10447.5 secs

     total energy              =   -3437.66590838 Ry
     estimated scf accuracy    <       0.00320217 Ry
     electrostatic embedding   =      -0.03001479 Ry
     cavitation energy         =       0.02064427 Ry
     PV energy                 =      -0.08147814 Ry
     correction to one-el term =     192.01391107 Ry

     iteration #  5     ecut=    50.00 Ry     beta= 0.70
     Davidson diagonalization with overlap
     ethr =  8.70E-07,  avg # of iterations =  2.0

     negative rho (up, down):  3.569E-05 0.000E+00

     add environment contribution to local potential
     Polarization accuracy = 9.0E-12, # of iterations =  43

     total cpu time spent up to now is    10678.1 secs

     total energy              =   -3437.66616014 Ry
     estimated scf accuracy    <       0.00152895 Ry
     electrostatic embedding   =      -0.03028902 Ry
     cavitation energy         =       0.02064465 Ry
     PV energy                 =      -0.08147503 Ry
     correction to one-el term =     191.87605508 Ry

     iteration #  6     ecut=    50.00 Ry     beta= 0.70
     Davidson diagonalization with overlap
     ethr =  4.15E-07,  avg # of iterations =  1.0

     negative rho (up, down):  3.610E-05 0.000E+00

     add environment contribution to local potential
     Polarization accuracy = 8.7E-12, # of iterations =  43

     total cpu time spent up to now is    10884.2 secs

     total energy              =   -3437.66622915 Ry
     estimated scf accuracy    <       0.00011156 Ry
     electrostatic embedding   =      -0.03040776 Ry
     cavitation energy         =       0.02064646 Ry
     PV energy                 =      -0.08147228 Ry
     correction to one-el term =     191.80695928 Ry

     iteration #  7     ecut=    50.00 Ry     beta= 0.70
     Davidson diagonalization with overlap
     ethr =  3.03E-08,  avg # of iterations =  2.0

     negative rho (up, down):  3.880E-05 0.000E+00

     add environment contribution to local potential
     Polarization accuracy = 8.0E-12, # of iterations =  43

     total cpu time spent up to now is    11160.0 secs

     total energy              =   -3437.66624846 Ry
     estimated scf accuracy    <       0.00010690 Ry
     electrostatic embedding   =      -0.03057810 Ry
     cavitation energy         =       0.02065176 Ry
     PV energy                 =      -0.08146508 Ry
     correction to one-el term =     191.70451193 Ry

     iteration #  8     ecut=    50.00 Ry     beta= 0.70
     Davidson diagonalization with overlap
     ethr =  2.90E-08,  avg # of iterations =  1.0

     negative rho (up, down):  4.808E-05 0.000E+00

     add environment contribution to local potential
     Polarization accuracy = 7.7E-12, # of iterations =  43

     total cpu time spent up to now is    11324.3 secs

     total energy              =   -3437.66625686 Ry
     estimated scf accuracy    <       0.00001193 Ry
     electrostatic embedding   =      -0.03069976 Ry
     cavitation energy         =       0.02065593 Ry
     PV energy                 =      -0.08145966 Ry
     correction to one-el term =     191.63236374 Ry

     iteration #  9     ecut=    50.00 Ry     beta= 0.70
     Davidson diagonalization with overlap
     ethr =  3.24E-09,  avg # of iterations =  2.0

     negative rho (up, down):  5.785E-05 0.000E+00

     add environment contribution to local potential
     Polarization accuracy = 7.7E-12, # of iterations =  43

     total cpu time spent up to now is    11502.4 secs

     total energy              =   -3437.66626104 Ry
     estimated scf accuracy    <       0.00000533 Ry
     electrostatic embedding   =      -0.03080916 Ry
     cavitation energy         =       0.02066124 Ry
     PV energy                 =      -0.08145318 Ry
     correction to one-el term =     191.57361407 Ry

     iteration # 10     ecut=    50.00 Ry     beta= 0.70
     Davidson diagonalization with overlap
     ethr =  1.45E-09,  avg # of iterations =  2.0

     negative rho (up, down):  6.808E-05 0.000E+00

     add environment contribution to local potential
     Polarization accuracy = 7.7E-12, # of iterations =  43

     total cpu time spent up to now is    11764.0 secs

     total energy              =   -3437.66626210 Ry
     estimated scf accuracy    <       0.00000255 Ry
     electrostatic embedding   =      -0.03085456 Ry
     cavitation energy         =       0.02066393 Ry
     PV energy                 =      -0.08144994 Ry
     correction to one-el term =     191.55338306 Ry

     iteration # 11     ecut=    50.00 Ry     beta= 0.70
[...]
     atom   15 type  1   force =    -0.05786757   -0.35500861   25.83777141
     atom   16 type  1   force =    -0.07029582   -0.35645409   25.83931013
     atom   17 type  2   force =     0.17944488   -0.67394544   -0.00586470
     atom   18 type  2   force =     0.17507342   -0.68225983   -0.00586445
     atom   19 type  1   force =     0.05223231   -0.74249728   -0.00246126
     atom   20 type  1   force =     0.05053222   -0.74685483   -0.00246171
     atom   21 type  2   force =    -0.27624732    0.22523609   -0.00604650
     atom   22 type  2   force =    -0.29615355    0.22941853   -0.00604702
     atom   23 type  1   force =     0.07840659    0.76693336   -0.00246740
     atom   24 type  1   force =     0.07739298    0.76912484   -0.00246768
     atom   25 type  1   force =    -0.05786923   -0.35501924  -25.83953905
     atom   26 type  1   force =    -0.07029855   -0.35646485  -25.84107774
     atom   27 type  1   force =     0.04183966    0.60578000  -38.58632885
     atom   28 type  1   force =     0.02216745    0.60658313  -38.58497735
     atom   29 type  2   force =     0.24814871    2.21820283 -170.78731228
     atom   30 type  2   force =     0.24280272    2.20860518 -170.85697563
     atom   31 type  1   force =    -0.02410739    0.28998985  -60.91782009
     atom   32 type  1   force =    -0.03048530    0.27933504  -61.04593683
     atom   33 type  2   force =    -0.02147804   -3.04832565 -171.44504906
     atom   34 type  2   force =    -0.18707305   -3.04927613 -171.44181440
     atom   35 type  1   force =    -0.02899756   -0.92819199  -68.73553806
     atom   36 type  1   force =    -0.02637098   -0.91135103  -68.86732076
     atom   37 type  1   force =    -0.03467196    2.46586818  -92.41206887
     atom   38 type  1   force =    -0.06611472    2.46427083  -92.41190081
     atom   39 type  1   force =     1.11638244   -0.36690383  -95.35799109
     atom   40 type  1   force =     1.05026931   -0.35720937  -95.32769321
     atom   41 type  3   force =    -2.72184271   -0.72233860   16.49465177
     atom   42 type  3   force =    -2.72184271   -0.72233860  -16.49465177
     atom   43 type  3   force =    -2.72144215   -0.75569694   16.51468733
     atom   44 type  3   force =    -2.72144215   -0.75569694  -16.51468733
     atom   45 type  3   force =     0.03827771   -1.45007339   16.91762776
     atom   46 type  3   force =     0.03827771   -1.45007339  -16.91762776
     atom   47 type  3   force =     0.02936774   -1.45000403   16.91810708
     atom   48 type  3   force =     0.02936774   -1.45000403  -16.91810708
     The core correction contribution to forces
     atom    1 type  1   force =    -0.01710460   -0.00275073   -0.00303516
     atom    2 type  1   force =    -0.01707826   -0.00292926   -0.00277498
     atom    3 type  1   force =    -0.00000702   -0.01294116   -0.00189140
     atom    4 type  1   force =     0.00000828   -0.01293359   -0.00188478
     atom    5 type  2   force =     0.00000000    0.00000000    0.00000000
     atom    6 type  2   force =     0.00000000    0.00000000    0.00000000
     atom    7 type  1   force =     0.00037482    0.00067436    0.00109695
     atom    8 type  1   force =     0.00037505    0.00068588    0.00106403
     atom    9 type  2   force =     0.00000000    0.00000000    0.00000000
     atom   10 type  2   force =     0.00000000    0.00000000    0.00000000
     atom   11 type  1   force =     0.00030718   -0.00042163   -0.00156003
     atom   12 type  1   force =     0.00030422   -0.00043615   -0.00158971
     atom   13 type  1   force =    -0.00007624   -0.00051233   -0.00032530
     atom   14 type  1   force =    -0.00007512   -0.00050514   -0.00032295
     atom   15 type  1   force =     0.00034304    0.00059566   -0.00008255
     atom   16 type  1   force =     0.00033415    0.00058112   -0.00008075
     atom   17 type  2   force =     0.00000000    0.00000000    0.00000000
     atom   18 type  2   force =     0.00000000    0.00000000    0.00000000
     atom   19 type  1   force =    -0.00043576   -0.00053567   -0.00000207
     atom   20 type  1   force =    -0.00043496   -0.00053274   -0.00000207
     atom   21 type  2   force =     0.00000000    0.00000000    0.00000000
     atom   22 type  2   force =     0.00000000    0.00000000    0.00000000
     atom   23 type  1   force =    -0.00045809    0.00050364   -0.00000195
     atom   24 type  1   force =    -0.00045424    0.00049845   -0.00000195
     atom   25 type  1   force =     0.00034299    0.00059588    0.00008030
     atom   26 type  1   force =     0.00033410    0.00058132    0.00007850
     atom   27 type  1   force =    -0.00007624   -0.00051246    0.00032302
     atom   28 type  1   force =    -0.00007512   -0.00050527    0.00032067
     atom   29 type  2   force =     0.00000000    0.00000000    0.00000000
     atom   30 type  2   force =     0.00000000    0.00000000    0.00000000
     atom   31 type  1   force =     0.00037482    0.00067449   -0.00109889
     atom   32 type  1   force =     0.00037505    0.00068601   -0.00106598
     atom   33 type  2   force =     0.00000000    0.00000000    0.00000000
     atom   34 type  2   force =     0.00000000    0.00000000    0.00000000
     atom   35 type  1   force =     0.00030721   -0.00042172    0.00155792
     atom   36 type  1   force =     0.00030425   -0.00043625    0.00158760
     atom   37 type  1   force =    -0.00000699   -0.01294300    0.00188763
     atom   38 type  1   force =     0.00000831   -0.01293543    0.00188100
     atom   39 type  1   force =    -0.01710537   -0.00275076    0.00303267
     atom   40 type  1   force =    -0.01707902   -0.00292931    0.00277247
     atom   41 type  3   force =     0.00000000    0.00000000    0.00000000
     atom   42 type  3   force =     0.00000000    0.00000000    0.00000000
     atom   43 type  3   force =     0.00000000    0.00000000    0.00000000
     atom   44 type  3   force =     0.00000000    0.00000000    0.00000000
     atom   45 type  3   force =     0.00000000    0.00000000    0.00000000
     atom   46 type  3   force =     0.00000000    0.00000000    0.00000000
     atom   47 type  3   force =     0.00000000    0.00000000    0.00000000
     atom   48 type  3   force =     0.00000000    0.00000000    0.00000000
     The Hubbard contrib.    to forces
     atom    1 type  1   force =     0.00000000    0.00000000    0.00000000
     atom    2 type  1   force =     0.00000000    0.00000000    0.00000000
     atom    3 type  1   force =     0.00000000    0.00000000    0.00000000
     atom    4 type  1   force =     0.00000000    0.00000000    0.00000000
     atom    5 type  2   force =     0.00000000    0.00000000    0.00000000
     atom    6 type  2   force =     0.00000000    0.00000000    0.00000000
     atom    7 type  1   force =     0.00000000    0.00000000    0.00000000
     atom    8 type  1   force =     0.00000000    0.00000000    0.00000000
     atom    9 type  2   force =     0.00000000    0.00000000    0.00000000
     atom   10 type  2   force =     0.00000000    0.00000000    0.00000000
     atom   11 type  1   force =     0.00000000    0.00000000    0.00000000
     atom   12 type  1   force =     0.00000000    0.00000000    0.00000000
     atom   13 type  1   force =     0.00000000    0.00000000    0.00000000
     atom   14 type  1   force =     0.00000000    0.00000000    0.00000000
     atom   15 type  1   force =     0.00000000    0.00000000    0.00000000
     atom   16 type  1   force =     0.00000000    0.00000000    0.00000000
     atom   17 type  2   force =     0.00000000    0.00000000    0.00000000
     atom   18 type  2   force =     0.00000000    0.00000000    0.00000000
     atom   19 type  1   force =     0.00000000    0.00000000    0.00000000
     atom   20 type  1   force =     0.00000000    0.00000000    0.00000000
     atom   21 type  2   force =     0.00000000    0.00000000    0.00000000
     atom   22 type  2   force =     0.00000000    0.00000000    0.00000000
     atom   23 type  1   force =     0.00000000    0.00000000    0.00000000
     atom   24 type  1   force =     0.00000000    0.00000000    0.00000000
     atom   25 type  1   force =     0.00000000    0.00000000    0.00000000
     atom   26 type  1   force =     0.00000000    0.00000000    0.00000000
     atom   27 type  1   force =     0.00000000    0.00000000    0.00000000
     atom   28 type  1   force =     0.00000000    0.00000000    0.00000000
     atom   29 type  2   force =     0.00000000    0.00000000    0.00000000
     atom   30 type  2   force =     0.00000000    0.00000000    0.00000000
     atom   31 type  1   force =     0.00000000    0.00000000    0.00000000
     atom   32 type  1   force =     0.00000000    0.00000000    0.00000000
     atom   33 type  2   force =     0.00000000    0.00000000    0.00000000
     atom   34 type  2   force =     0.00000000    0.00000000    0.00000000
     atom   35 type  1   force =     0.00000000    0.00000000    0.00000000
     atom   36 type  1   force =     0.00000000    0.00000000    0.00000000
     atom   37 type  1   force =     0.00000000    0.00000000    0.00000000
     atom   38 type  1   force =     0.00000000    0.00000000    0.00000000
     atom   39 type  1   force =     0.00000000    0.00000000    0.00000000
     atom   40 type  1   force =     0.00000000    0.00000000    0.00000000
     atom   41 type  3   force =     0.00000000    0.00000000    0.00000000
     atom   42 type  3   force =     0.00000000    0.00000000    0.00000000
     atom   43 type  3   force =     0.00000000    0.00000000    0.00000000
     atom   44 type  3   force =     0.00000000    0.00000000    0.00000000
     atom   45 type  3   force =     0.00000000    0.00000000    0.00000000
     atom   46 type  3   force =     0.00000000    0.00000000    0.00000000
     atom   47 type  3   force =     0.00000000    0.00000000    0.00000000
     atom   48 type  3   force =     0.00000000    0.00000000    0.00000000
     The SCF correction term to forces
     atom    1 type  1   force =    -0.00000126    0.00000042    0.00000150
     atom    2 type  1   force =     0.00000143   -0.00000041    0.00000167
     atom    3 type  1   force =    -0.00000133    0.00000006    0.00000180
     atom    4 type  1   force =     0.00000125    0.00000038    0.00000069
     atom    5 type  2   force =     0.00000046   -0.00000044    0.00000484
     atom    6 type  2   force =    -0.00000043    0.00000047    0.00000298
     atom    7 type  1   force =    -0.00000033    0.00000085    0.00000233
     atom    8 type  1   force =     0.00000014    0.00000029    0.00000058
     atom    9 type  2   force =    -0.00000183    0.00000006    0.00000410
     atom   10 type  2   force =     0.00000211   -0.00000029    0.00000312
     atom   11 type  1   force =    -0.00000035   -0.00000062    0.00000163
     atom   12 type  1   force =     0.00000019   -0.00000050    0.00000106
     atom   13 type  1   force =    -0.00000067   -0.00000027    0.00000155
     atom   14 type  1   force =     0.00000059    0.00000029    0.00000163
     atom   15 type  1   force =    -0.00000008   -0.00000016    0.00000062
     atom   16 type  1   force =     0.00000001   -0.00000043    0.00000096
     atom   17 type  2   force =    -0.00000048    0.00000006   -0.00000000
     atom   18 type  2   force =     0.00000024    0.00000046   -0.00000000
     atom   19 type  1   force =     0.00000019    0.00000003   -0.00000000
     atom   20 type  1   force =    -0.00000009   -0.00000021   -0.00000000
     atom   21 type  2   force =    -0.00000087   -0.00000027   -0.00000000
     atom   22 type  2   force =     0.00000092   -0.00000026   -0.00000000
     atom   23 type  1   force =     0.00000001   -0.00000014   -0.00000000
     atom   24 type  1   force =     0.00000008    0.00000018   -0.00000000
     atom   25 type  1   force =    -0.00000008   -0.00000016   -0.00000062
     atom   26 type  1   force =     0.00000001   -0.00000043   -0.00000096
     atom   27 type  1   force =    -0.00000067   -0.00000027   -0.00000155
     atom   28 type  1   force =     0.00000059    0.00000029   -0.00000163
     atom   29 type  2   force =     0.00000046   -0.00000044   -0.00000485
     atom   30 type  2   force =    -0.00000043    0.00000047   -0.00000299
     atom   31 type  1   force =    -0.00000033    0.00000085   -0.00000234
     atom   32 type  1   force =     0.00000015    0.00000029   -0.00000058
     atom   33 type  2   force =    -0.00000183    0.00000006   -0.00000411
     atom   34 type  2   force =     0.00000211   -0.00000029   -0.00000313
     atom   35 type  1   force =    -0.00000036   -0.00000062   -0.00000164
     atom   36 type  1   force =     0.00000019   -0.00000050   -0.00000106
     atom   37 type  1   force =    -0.00000133    0.00000006   -0.00000180
     atom   38 type  1   force =     0.00000125    0.00000038   -0.00000069
     atom   39 type  1   force =    -0.00000126    0.00000042   -0.00000150
     atom   40 type  1   force =     0.00000143   -0.00000041   -0.00000167
     atom   41 type  3   force =    -0.00000007    0.00000005    0.00000017
     atom   42 type  3   force =    -0.00000007    0.00000005   -0.00000017
     atom   43 type  3   force =     0.00000008   -0.00000005    0.00000027
     atom   44 type  3   force =     0.00000008   -0.00000005   -0.00000027
     atom   45 type  3   force =    -0.00000019    0.00000010    0.00000021
     atom   46 type  3   force =    -0.00000019    0.00000010   -0.00000021
     atom   47 type  3   force =     0.00000019    0.00000001    0.00000018
     atom   48 type  3   force =     0.00000019    0.00000001   -0.00000018

     Total force =     0.000533     Total SCF correction =     0.000014
     Energy error            =      5.1E-07 Ry
     Gradient error          =      1.0E-04 Ry/Bohr

     bfgs converged in  58 scf cycles and  57 bfgs steps
     (criteria: energy <  1.0E-04 Ry, force <  1.0E-04 Ry/Bohr)

     End of BFGS Geometry Optimization

     Final energy             =   -3437.7089986192 Ry

     File /storage/home/mgm6007/ixd4/Maria/StrainJin_Files/RuO2-110-0-0123/RuO2-110-0-0123.bfgs deleted, as requested
Begin final coordinates

ATOMIC_POSITIONS (crystal)
O            -0.0033338177        0.4419980276        0.2680271355
O             0.4944665485        0.4421417864        0.2680009559
O            -0.0040352230        0.0130724262        0.3018914809
O             0.4957957833        0.0131674311        0.3018909491
Ru            0.2459690709        0.0011016651        0.3586484767
Ru            0.7459571710        0.0010393666        0.3586037128
O             0.2524028426        0.3148874595        0.3613341504
O             0.7523743990        0.3148959212        0.3611801375
Ru            0.0017967179        0.5011521298        0.3565277626
Ru            0.5017251152        0.5011241295        0.3565390918
O             0.2527442354        0.6881111854        0.3515146556
O             0.7527348104        0.6880244231        0.3513359034
O            -0.0034330666       -0.0030523062        0.4111462413
O             0.4967227544       -0.0029739960        0.4111502951
O             0.0050005541        0.5118030320        0.4451442847
O             0.5051300208        0.5117471811        0.4451543413
Ru           -0.0031284407        0.0070552592        0.5000010000
Ru            0.4969035732        0.0071180299        0.5000010000
O             0.2455119633        0.1941679444        0.5000010000
O             0.7456262787        0.1941489449        0.5000010000
Ru            0.2561126996        0.5081534913        0.5000010000
Ru            0.7560806541        0.5081427791        0.5000010000
O             0.2460894312        0.8220406836        0.5000010000
O             0.7460245806        0.8220259542        0.5000010000
O             0.0050005541        0.5118030320        0.5548567153
O             0.5051300208        0.5117471811        0.5548466587
O            -0.0034330666       -0.0030523062        0.5888547587
O             0.4967227544       -0.0029739960        0.5888507049
Ru            0.2459690709        0.0011016651        0.6413525233
Ru            0.7459571710        0.0010393666        0.6413972872
O             0.2524028426        0.3148874595        0.6386668496
O             0.7523743990        0.3148959212        0.6388208625
Ru            0.0017967179        0.5011521298        0.6434732374
Ru            0.5017251152        0.5011241295        0.6434619082
O             0.2527442354        0.6881111854        0.6484863444
O             0.7527348104        0.6880244231        0.6486650966
O            -0.0040352230        0.0130724262        0.6981105191
O             0.4957957833        0.0131674311        0.6981110509
O            -0.0033338177        0.4419980276        0.7319738645
O             0.4944665485        0.4421417864        0.7320000441
H             0.1313123411        0.4706182971        0.2504371363
H             0.1313123411        0.4706182971        0.7495628637
H             0.6278854314        0.4723926440        0.2498497850
H             0.6278854314        0.4723926440        0.7501502150
H            -0.0050716649        0.1578469736        0.2781755268
H            -0.0050716649        0.1578469736        0.7218244732
H             0.4945156060        0.1579086795        0.2781632833
H             0.4945156060        0.1579086795        0.7218367167
End final coordinates



     Writing all to output data dir /storage/home/mgm6007/ixd4/Maria/StrainJin_Files/RuO2-110-0-0123/RuO2-110-0-0123.save/
 
     init_run     :    248.28s CPU    898.66s WALL (       1 calls)
     electrons    :  57774.37s CPU 147085.82s WALL (      58 calls)
     update_pot   :     96.93s CPU     97.08s WALL (      57 calls)
     forces       :    104.76s CPU    105.33s WALL (      58 calls)

     Called by init_run:
     wfcinit      :      0.97s CPU      0.97s WALL (       1 calls)
     potinit      :    194.95s CPU    713.31s WALL (       1 calls)
     hinit0       :     51.92s CPU    183.88s WALL (       1 calls)

     Called by electrons:
     c_bands      :   2558.73s CPU   2560.81s WALL (    1063 calls)
     sum_band     :    463.54s CPU    463.95s WALL (    1063 calls)
     v_of_rho     :    126.12s CPU    126.48s WALL (    1080 calls)
     newd         :     90.44s CPU     90.52s WALL (    1080 calls)
     PAW_pot      :    130.80s CPU    130.91s WALL (    1137 calls)
     mix_rho      :    790.35s CPU    790.71s WALL (    1063 calls)

     Called by c_bands:
     init_us_2    :     30.38s CPU     30.42s WALL (    4484 calls)
     init_us_2:cp :     30.35s CPU     30.41s WALL (    4484 calls)
     cegterg      :   2448.00s CPU   2449.80s WALL (    2126 calls)

     Called by *egterg:
     cdiaghg      :    297.49s CPU    297.65s WALL (    5630 calls)
     h_psi        :   1275.93s CPU   1276.96s WALL (    5828 calls)
     s_psi        :    197.93s CPU    198.06s WALL (    5828 calls)
     g_psi        :      6.12s CPU      6.13s WALL (    3700 calls)

     Called by h_psi:
     h_psi:calbec :    199.97s CPU    200.18s WALL (    5828 calls)
     vloc_psi     :    861.29s CPU    861.94s WALL (    5828 calls)
     add_vuspsi   :    198.77s CPU    198.93s WALL (    5828 calls)

     General routines
     calbec       :    318.41s CPU    318.70s WALL (    8532 calls)
     fft          :  11486.10s CPU  11487.85s WALL (   14660 calls)
     ffts         :    290.08s CPU    290.00s WALL (  460945 calls)
     fftw         :    806.67s CPU    807.10s WALL ( 2461584 calls)
     interpolate  :  11402.79s CPU  11404.53s WALL (    1080 calls)
 
     Parallel routines
 
     Environ routines
 
     PWSCF        :     17h 2m CPU   1d19h18m WALL

 
   This run was terminated on:   6:39:13  28Jul2023            

=------------------------------------------------------------------------------=
   JOB DONE.
=------------------------------------------------------------------------------=
