
     Program PWSCF v.7.2 starts on 23Jul2023 at 14:25:34 
        Git branch: heads/qe-7.2
        Last git commit: b4c5e8deeb7d1863e7553a87b45f8d22c21926a5
        Last git commit date: Mon Mar 27 16:12:09 2023 +0000
        Last git commit subject: Merge branch 'merge_fix_hubbard' into 'develop'

     This program is part of the open-source Quantum ESPRESSO suite
     for quantum simulation of materials; please cite
         "P. Giannozzi et al., J. Phys.:Condens. Matter 21 395502 (2009);
         "P. Giannozzi et al., J. Phys.:Condens. Matter 29 465901 (2017);
         "P. Giannozzi et al., J. Chem. Phys. 152 154105 (2020);
          URL http://www.quantum-espresso.org", 
     in publications or presentations arising from this work. More details at
     http://www.quantum-espresso.org/quote

     Parallel version (MPI), running on    20 processors

     MPI processes distributed on     1 nodes
     107908 MiB available memory on the printing compute node when the environment starts
 
     Reading input from RuO2-110-0-012345.in

     Current dimensions of program PWSCF are:
     Max number of different atomic species (ntypx) = 10
     Max number of k-points (npk) =  40000
     Max angular momentum in pseudopotentials (lmaxx) =  4
 
     Reading input from environ.in:
     * Environ restarting
     * setting up water environment
     * using electronic solvent mode
     * setting boundary derivatives method to SCCS default
     

     File /storage/home/mgm6007/ixd4/Maria/Strain2_Files/RuO2-110-0-012345/RuO2-110-0-012345.update deleted, as requested

     File /storage/home/mgm6007/ixd4/Maria/Strain2_Files/RuO2-110-0-012345/RuO2-110-0-012345.bfgs deleted, as requested
     file O.pbe-n-kjpaw_psl.0.1.UPF: wavefunction(s)  2P renormalized
     Found identity + ( -0.5000  0.0000 -0.0000) symmetry
     This is a supercell, fractional translations are disabled
     Message from routine setup:
     using ibrav=0 with symmetry is DISCOURAGED, use correct ibrav instead
 
     R & G space division:  proc/nbgrp/npool/nimage =      20
     Subspace diagonalization in iterative solution of the eigenvalue problem:
     one sub-group per band group will be used
     scalapack distributed-memory algorithm (size of sub-group:  2*  2 procs)

 
     Parallelization info
     --------------------
     sticks:   dense  smooth     PW     G-vecs:    dense   smooth      PW
     Min         279     111     29                55537    14039    1893
     Max         280     112     30                55546    14052    1904
     Sum        5595    2237    595              1110843   280917   37967
 
     Using Slab Decomposition
 


     bravais-lattice index     =            0
     lattice parameter (alat)  =      12.2467  a.u.
     unit-cell volume          =    5883.2137 (a.u.)^3
     number of atoms/cell      =           52
     number of atomic types    =            3
     number of electrons       =       372.00
     number of Kohn-Sham states=          223
     kinetic-energy cutoff     =      50.0000  Ry
     charge density cutoff     =     500.0000  Ry
     scf convergence threshold =      1.0E-09
     mixing beta               =       0.7000
     number of iterations used =            8  local-TF  mixing
     energy convergence thresh.=      1.0E-04
     force convergence thresh. =      1.0E-04
     Exchange-correlation= PBE
                           (   1   4   3   4   0   0   0)
     nstep                     =          200


     ================================================================================
 
                                  Environ Setup Summary

     ================================================================================
 
     Please cite

          O. Andreussi, I. Dabo and N. Marzari, J. Chem. Phys. 136, 064102 (2012)

     in publications or presentations arising from this work.

     ================================================================================
 
     Parameters
     ==========

     compensation onset threshold      =               0.1000E+00
     static permittivity               =                    78.30
     surface tension in input (dyn/cm) =                    47.90
     surface tension in internal units =               0.6153E-04
     external pressure in input (GPa)  =                    -0.36
     external pressure in inter. units =              -0.2447E-04

     Solvent Boundary
     ================

     solvent mode                      =               electronic
     derivatives method                =                    chain
     numerical core for derivatives    =                      fft
     switching function adopted        =                     SCCS
     density limit for vacuum region   =               0.5000E-02
     density limit for bulk solvent    =               0.1000E-03

     Electrostatic Setup
     ===================

     electrostatic problem to solve    =              generalized
     numerical solver adopted          =                       cg
     type of auxiliary density adopted =                     none
     numerical core for poisson        =                      fft
     type of pbc corrections           =                parabolic
     numerical core for corrections    =                      1da

     ================================================================================
 

     celldm(1)=  12.246684  celldm(2)=   0.000000  celldm(3)=   0.000000
     celldm(4)=   0.000000  celldm(5)=   0.000000  celldm(6)=   0.000000

     crystal axes: (cart. coord. in units of alat)
               a(1) = (   1.000000   0.000000   0.000000 )  
               a(2) = (   0.000000   0.937861   0.000000 )  
               a(3) = (   0.000000   0.000000   3.415235 )  

     reciprocal axes: (cart. coord. in units 2 pi/alat)
               b(1) = (  1.000000  0.000000  0.000000 )  
               b(2) = (  0.000000  1.066256  0.000000 )  
               b(3) = (  0.000000  0.000000  0.292806 )  


     PseudoPot. # 1 for O  read from file:
     /gpfs/group/ixd4/default/Simon/pseudopotentials/materialscloud/SSSP_1.3.0_PBE_efficiency/O.pbe-n-kjpaw_psl.0.1.UPF
     MD5 check sum: 0234752ac141de4415c5fc33072bef88
     Pseudo is Projector augmented-wave + core cor, Zval =  6.0
     Generated using "atomic" code by A. Dal Corso  v.5.0.99 svn rev. 10869
     Shape of augmentation charge: BESSEL
     Using radial grid of 1095 points,  4 beta functions with: 
                l(1) =   0
                l(2) =   0
                l(3) =   1
                l(4) =   1
     Q(r) pseudized with 0 coefficients 


     PseudoPot. # 2 for Ru read from file:
     /gpfs/group/ixd4/default/Simon/pseudopotentials/materialscloud/SSSP_1.3.0_PBE_efficiency/Ru_ONCV_PBE-1.0.oncvpsp.upf
     MD5 check sum: be037bb81c227cfb9b1461a9f099f4bd
     Pseudo is Norm-conserving, Zval = 16.0
     Generated using ONCVPSP code by D. R. Hamann
     Using radial grid of 1458 points,  6 beta functions with: 
                l(1) =   0
                l(2) =   0
                l(3) =   1
                l(4) =   1
                l(5) =   2
                l(6) =   2

     PseudoPot. # 3 for H  read from file:
     /gpfs/group/ixd4/default/Simon/pseudopotentials/materialscloud/SSSP_1.3.0_PBE_efficiency/H.pbe-rrkjus_psl.1.0.0.UPF
     MD5 check sum: f52b6d4d1c606e5624b1dc7b2218f220
     Pseudo is Ultrasoft, Zval =  1.0
     Generated using "atomic" code by A. Dal Corso  v.5.1
     Using radial grid of  929 points,  2 beta functions with: 
                l(1) =   0
                l(2) =   0
     Q(r) pseudized with 0 coefficients 


     atomic species   valence    mass     pseudopotential
        O              6.00    15.99940     O ( 1.00)
        Ru            16.00   101.07000     Ru( 1.00)
        H              1.00     1.00794     H ( 1.00)

      4 Sym. Ops. (no inversion) found



   Cartesian axes

     site n.     atom                  positions (alat units)
         1           O   tau(   1) = (  -0.0013108   0.4689304   0.8929262  )
         2           O   tau(   2) = (   0.4986908   0.4689304   0.8929258  )
         3           O   tau(   3) = (  -0.0032722   0.0000000   0.9829257  )
         4           O   tau(   4) = (   0.4967278   0.0000000   0.9829257  )
         5           Ru  tau(   5) = (   0.2478836   0.0000000   1.2286465  )
         6           Ru  tau(   6) = (   0.7478836   0.0000000   1.2286465  )
         7           O   tau(   7) = (   0.2489750   0.2917490   1.2108203  )
         8           O   tau(   8) = (   0.7489751   0.2917490   1.2108203  )
         9           Ru  tau(   9) = (  -0.0011868   0.4689304   1.2154677  )
        10           Ru  tau(  10) = (   0.4988131   0.4689304   1.2154677  )
        11           O   tau(  11) = (   0.2489750   0.6461119   1.2108203  )
        12           O   tau(  12) = (   0.7489751   0.6461119   1.2108203  )
        13           O   tau(  13) = (  -0.0014730   0.0000000   1.4078043  )
        14           O   tau(  14) = (   0.4985270   0.0000000   1.4078043  )
        15           O   tau(  15) = (  -0.0016238   0.4689304   1.5188278  )
        16           O   tau(  16) = (   0.4983762   0.4689304   1.5188278  )
        17           Ru  tau(  17) = (  -0.0007870   0.0000000   1.7076210  )
        18           Ru  tau(  18) = (   0.4992130   0.0000000   1.7076210  )
        19           O   tau(  19) = (   0.2495410   0.1767584   1.7076210  )
        20           O   tau(  20) = (   0.7495411   0.1767584   1.7076210  )
        21           Ru  tau(  21) = (   0.2490558   0.4689304   1.7076210  )
        22           Ru  tau(  22) = (   0.7490558   0.4689304   1.7076210  )
        23           O   tau(  23) = (   0.2495410   0.7611034   1.7076210  )
        24           O   tau(  24) = (   0.7495411   0.7611034   1.7076210  )
        25           O   tau(  25) = (  -0.0016238   0.4689304   1.8964109  )
        26           O   tau(  26) = (   0.4983762   0.4689304   1.8964109  )
        27           O   tau(  27) = (  -0.0014730   0.0000000   2.0074343  )
        28           O   tau(  28) = (   0.4985270   0.0000000   2.0074343  )
        29           Ru  tau(  29) = (   0.2478836   0.0000000   2.1865921  )
        30           Ru  tau(  30) = (   0.7478836   0.0000000   2.1865921  )
        31           O   tau(  31) = (   0.2489750   0.2917490   2.2044184  )
        32           O   tau(  32) = (   0.7489751   0.2917490   2.2044184  )
        33           Ru  tau(  33) = (  -0.0011868   0.4689304   2.1997709  )
        34           Ru  tau(  34) = (   0.4988131   0.4689304   2.1997709  )
        35           O   tau(  35) = (   0.2489750   0.6461119   2.2044184  )
        36           O   tau(  36) = (   0.7489751   0.6461119   2.2044184  )
        37           O   tau(  37) = (  -0.0032722   0.0000000   2.4323163  )
        38           O   tau(  38) = (   0.4967278   0.0000000   2.4323163  )
        39           O   tau(  39) = (  -0.0013108   0.4689304   2.5223124  )
        40           O   tau(  40) = (   0.4986908   0.4689304   2.5223128  )
        41           H   tau(  41) = (   0.1453930   0.4689304   0.8567459  )
        42           H   tau(  42) = (   0.1453930   0.4689304   2.5584893  )
        43           H   tau(  43) = (   0.6453916   0.4689304   0.8567463  )
        44           H   tau(  44) = (   0.6453916   0.4689304   2.5584889  )
        45           H   tau(  45) = (  -0.0067003   0.1270277   0.8977370  )
        46           H   tau(  46) = (  -0.0067003   0.1270277   2.5174982  )
        47           H   tau(  47) = (   0.4932997   0.1270277   0.8977370  )
        48           H   tau(  48) = (   0.4932997   0.1270277   2.5174982  )
        49           H   tau(  49) = (  -0.0067003   0.8108332   0.8977370  )
        50           H   tau(  50) = (  -0.0067003   0.8108332   2.5174982  )
        51           H   tau(  51) = (   0.4932997   0.8108332   0.8977370  )
        52           H   tau(  52) = (   0.4932997   0.8108332   2.5174982  )

     number of k points=     1  Marzari-Vanderbilt smearing, width (Ry)=  0.0300
                       cart. coord. in units 2pi/alat
        k(    1) = (   0.2500000   0.2665641   0.0000000), wk =   2.0000000

     Dense  grid:  1110843 G-vectors     FFT dimensions: (  90,  81, 300)

     Smooth grid:   280917 G-vectors     FFT dimensions: (  60,  54, 192)

     Estimated max dynamical RAM per process >     170.64 MB

     Estimated total dynamical RAM >       3.33 GB

     Check: negative core charge=   -0.000001

     Initial potential from superposition of free atoms

     starting charge     371.9932, renormalised to     372.0000

     add environment contribution to local potential
     Polarization accuracy = 6.1E-12, # of iterations =  20

     negative rho (up, down):  2.421E-05 0.000E+00
     Starting wfcs are  244 randomized atomic wfcs
     Checking if some PAW data can be deallocated... 

     total cpu time spent up to now is      768.3 secs

     per-process dynamical memory:   140.1 Mb

     Self-consistent Calculation

     iteration #  1     ecut=    50.00 Ry     beta= 0.70
     Davidson diagonalization with overlap
     ethr =  1.00E-02,  avg # of iterations =  2.0

     total cpu time spent up to now is      911.9 secs

     total energy              =   -3440.74477596 Ry
     estimated scf accuracy    <       8.69982121 Ry
     electrostatic embedding   =      -0.00175927 Ry
     cavitation energy         =       0.01854592 Ry
     PV energy                 =      -0.08992036 Ry
     correction to one-el term =     227.31462112 Ry

     iteration #  2     ecut=    50.00 Ry     beta= 0.70
     Davidson diagonalization with overlap
     ethr =  2.34E-03,  avg # of iterations =  2.0

     total cpu time spent up to now is     1064.8 secs

     total energy              =   -3442.54130658 Ry
     estimated scf accuracy    <       1.41277012 Ry
     electrostatic embedding   =      -0.00305738 Ry
     cavitation energy         =       0.01822583 Ry
     PV energy                 =      -0.09144155 Ry
     correction to one-el term =     227.31899169 Ry

     iteration #  3     ecut=    50.00 Ry     beta= 0.70
     Davidson diagonalization with overlap
     ethr =  3.80E-04,  avg # of iterations =  8.0

     total cpu time spent up to now is     1230.3 secs

     total energy              =   -3442.59459922 Ry
     estimated scf accuracy    <       0.61423953 Ry
     electrostatic embedding   =      -0.00355431 Ry
     cavitation energy         =       0.01829201 Ry
     PV energy                 =      -0.09160756 Ry
     correction to one-el term =     227.32026387 Ry

     iteration #  4     ecut=    50.00 Ry     beta= 0.70
     Davidson diagonalization with overlap
     ethr =  1.65E-04,  avg # of iterations =  3.0

     total cpu time spent up to now is     1392.1 secs

     total energy              =   -3442.56019110 Ry
     estimated scf accuracy    <       0.28646439 Ry
     electrostatic embedding   =      -0.00401480 Ry
     cavitation energy         =       0.01865615 Ry
     PV energy                 =      -0.09121650 Ry
     correction to one-el term =     227.32103407 Ry

     iteration #  5     ecut=    50.00 Ry     beta= 0.70
     Davidson diagonalization with overlap
     ethr =  7.70E-05,  avg # of iterations =  6.0

     total cpu time spent up to now is     1555.0 secs

     total energy              =   -3442.55197706 Ry
     estimated scf accuracy    <       0.38447558 Ry
     electrostatic embedding   =      -0.00423012 Ry
     cavitation energy         =       0.01941841 Ry
     PV energy                 =      -0.09004865 Ry
     correction to one-el term =     227.32084694 Ry

     iteration #  6     ecut=    50.00 Ry     beta= 0.70
     Davidson diagonalization with overlap
     ethr =  7.70E-05,  avg # of iterations =  1.0

     total cpu time spent up to now is     1703.6 secs

     total energy              =   -3442.53938030 Ry
     estimated scf accuracy    <       0.13366811 Ry
     electrostatic embedding   =      -0.00419329 Ry
     cavitation energy         =       0.02023077 Ry
     PV energy                 =      -0.08856803 Ry
     correction to one-el term =     227.32004193 Ry

     iteration #  7     ecut=    50.00 Ry     beta= 0.70
     Davidson diagonalization with overlap
     ethr =  3.59E-05,  avg # of iterations =  6.0

     total cpu time spent up to now is     1848.7 secs

     total energy              =   -3442.53346102 Ry
     estimated scf accuracy    <       0.11469462 Ry
     electrostatic embedding   =      -0.00376613 Ry
     cavitation energy         =       0.02128374 Ry
     PV energy                 =      -0.08636090 Ry
     correction to one-el term =     227.31800338 Ry

     iteration #  8     ecut=    50.00 Ry     beta= 0.70
     Davidson diagonalization with overlap
     ethr =  3.08E-05,  avg # of iterations = 10.0

     add environment contribution to local potential
     Polarization accuracy = 3.0E-12, # of iterations =  41

     total cpu time spent up to now is     2033.2 secs

     total energy              =   -3442.53460019 Ry
     estimated scf accuracy    <       0.02556317 Ry
     electrostatic embedding   =      -0.00335013 Ry
     cavitation energy         =       0.02151984 Ry
     PV energy                 =      -0.08558397 Ry
     correction to one-el term =     227.31650184 Ry

     iteration #  9     ecut=    50.00 Ry     beta= 0.70
     Davidson diagonalization with overlap
     ethr =  6.87E-06,  avg # of iterations = 11.0

     add environment contribution to local potential
     Polarization accuracy = 2.5E-12, # of iterations =  40

     total cpu time spent up to now is     2193.4 secs

     total energy              =   -3442.57250825 Ry
     estimated scf accuracy    <       0.04085883 Ry
     electrostatic embedding   =      -0.05677237 Ry
     cavitation energy         =       0.02102761 Ry
     PV energy                 =      -0.08570925 Ry
     correction to one-el term =     161.36432896 Ry

     iteration # 10     ecut=    50.00 Ry     beta= 0.70
     Davidson diagonalization with overlap
     ethr =  6.87E-06,  avg # of iterations =  6.0

     add environment contribution to local potential
     Polarization accuracy = 3.0E-12, # of iterations =  38

     total cpu time spent up to now is     2353.9 secs

     total energy              =   -3442.56993977 Ry
     estimated scf accuracy    <       0.01674420 Ry
     electrostatic embedding   =      -0.05551523 Ry
     cavitation energy         =       0.02080016 Ry
     PV energy                 =      -0.08583236 Ry
     correction to one-el term =     162.21531215 Ry

     iteration # 11     ecut=    50.00 Ry     beta= 0.70
     Davidson diagonalization with overlap
     ethr =  4.50E-06,  avg # of iterations =  4.0

     add environment contribution to local potential
     Polarization accuracy = 4.9E-12, # of iterations =  36

     total cpu time spent up to now is     2522.2 secs

     total energy              =   -3442.56870847 Ry
     estimated scf accuracy    <       0.00750119 Ry
     electrostatic embedding   =      -0.05578518 Ry
     cavitation energy         =       0.02062650 Ry
     PV energy                 =      -0.08593928 Ry
     correction to one-el term =     162.97001263 Ry

     iteration # 12     ecut=    50.00 Ry     beta= 0.70
     Davidson diagonalization with overlap
     ethr =  2.02E-06,  avg # of iterations =  6.0

     add environment contribution to local potential
     Polarization accuracy = 7.9E-12, # of iterations =  35

     total cpu time spent up to now is     2685.4 secs

     total energy              =   -3442.57077182 Ry
     estimated scf accuracy    <       0.00448745 Ry
     electrostatic embedding   =      -0.05507282 Ry
     cavitation energy         =       0.02036830 Ry
     PV energy                 =      -0.08616771 Ry
     correction to one-el term =     164.96596892 Ry

     iteration # 13     ecut=    50.00 Ry     beta= 0.70
     Davidson diagonalization with overlap
     ethr =  1.21E-06,  avg # of iterations =  8.0

     negative rho (up, down):  2.267E-04 0.000E+00

     add environment contribution to local potential
     Polarization accuracy = 9.6E-12, # of iterations =  35

     total cpu time spent up to now is     2849.8 secs

     total energy              =   -3442.57204767 Ry
     estimated scf accuracy    <       0.00235520 Ry
     electrostatic embedding   =      -0.05293617 Ry
     cavitation energy         =       0.02026986 Ry
     PV energy                 =      -0.08630343 Ry
     correction to one-el term =     166.49815677 Ry

     iteration # 14     ecut=    50.00 Ry     beta= 0.70
     Davidson diagonalization with overlap
     c_bands:  1 eigenvalues not converged
     ethr =  6.33E-07,  avg # of iterations = 20.0

     negative rho (up, down):  8.495E-05 0.000E+00

     add environment contribution to local potential
     Polarization accuracy = 9.1E-12, # of iterations =  35

     total cpu time spent up to now is     2991.9 secs

     total energy              =   -3442.57271268 Ry
     estimated scf accuracy    <       0.00201148 Ry
     electrostatic embedding   =      -0.05171927 Ry
     cavitation energy         =       0.02023043 Ry
     PV energy                 =      -0.08637451 Ry
     correction to one-el term =     167.68887683 Ry

     iteration # 15     ecut=    50.00 Ry     beta= 0.70
     Davidson diagonalization with overlap
     ethr =  5.41E-07,  avg # of iterations =  7.0

     negative rho (up, down):  2.845E-05 0.000E+00

     add environment contribution to local potential
     Polarization accuracy = 2.0E-12, # of iterations =  37

     total cpu time spent up to now is     3163.9 secs

     total energy              =   -3442.57289463 Ry
     estimated scf accuracy    <       0.00128752 Ry
     electrostatic embedding   =      -0.04972775 Ry
     cavitation energy         =       0.02022604 Ry
     PV energy                 =      -0.08641268 Ry
     correction to one-el term =     168.44023103 Ry

     iteration # 16     ecut=    50.00 Ry     beta= 0.70
     Davidson diagonalization with overlap
     ethr =  3.46E-07,  avg # of iterations = 17.0

     negative rho (up, down):  7.798E-04 0.000E+00

     add environment contribution to local potential
     Polarization accuracy = 5.9E-12, # of iterations =  35

     total cpu time spent up to now is     3323.1 secs

     total energy              =   -3442.57302911 Ry
     estimated scf accuracy    <       0.00020618 Ry
     electrostatic embedding   =      -0.04795373 Ry
     cavitation energy         =       0.02025250 Ry
     PV energy                 =      -0.08639468 Ry
     correction to one-el term =     168.75512655 Ry

     iteration # 17     ecut=    50.00 Ry     beta= 0.70
     Davidson diagonalization with overlap
     ethr =  5.54E-08,  avg # of iterations =  3.0

     negative rho (up, down):  6.250E-04 0.000E+00

     add environment contribution to local potential
     Polarization accuracy = 5.7E-12, # of iterations =  35

     total cpu time spent up to now is     3513.1 secs

     total energy              =   -3442.57306037 Ry
     estimated scf accuracy    <       0.00008995 Ry
     electrostatic embedding   =      -0.04673422 Ry
     cavitation energy         =       0.02025621 Ry
     PV energy                 =      -0.08638926 Ry
     correction to one-el term =     168.96835256 Ry

     iteration # 18     ecut=    50.00 Ry     beta= 0.70
     Davidson diagonalization with overlap
     ethr =  2.42E-08,  avg # of iterations =  2.0

     negative rho (up, down):  3.962E-04 0.000E+00

     add environment contribution to local potential
     Polarization accuracy = 7.0E-12, # of iterations =  35

     total cpu time spent up to now is     3686.0 secs

     total energy              =   -3442.57307030 Ry
     estimated scf accuracy    <       0.00001934 Ry
     electrostatic embedding   =      -0.04608343 Ry
     cavitation energy         =       0.02025718 Ry
     PV energy                 =      -0.08637966 Ry
     correction to one-el term =     169.03389365 Ry

     iteration # 19     ecut=    50.00 Ry     beta= 0.70
     Davidson diagonalization with overlap
     ethr =  5.20E-09,  avg # of iterations =  2.0

     negative rho (up, down):  1.403E-04 0.000E+00

     add environment contribution to local potential
     Polarization accuracy = 7.8E-12, # of iterations =  35

     total cpu time spent up to now is     3828.1 secs

     total energy              =   -3442.57307186 Ry
     estimated scf accuracy    <       0.00000830 Ry
     electrostatic embedding   =      -0.04579848 Ry
     cavitation energy         =       0.02025409 Ry
     PV energy                 =      -0.08637521 Ry
     correction to one-el term =     169.06412173 Ry

     iteration # 20     ecut=    50.00 Ry     beta= 0.70
     Davidson diagonalization with overlap
     ethr =  2.23E-09,  avg # of iterations =  5.0

     negative rho (up, down):  1.073E-04 0.000E+00

     add environment contribution to local potential
     Polarization accuracy = 9.3E-12, # of iterations =  36

     total cpu time spent up to now is     3987.9 secs

     total energy              =   -3442.57307265 Ry
     estimated scf accuracy    <       0.00000253 Ry
     electrostatic embedding   =      -0.04572607 Ry
     cavitation energy         =       0.02024812 Ry
     PV energy                 =      -0.08637235 Ry
     correction to one-el term =     169.08101776 Ry

     iteration # 21     ecut=    50.00 Ry     beta= 0.70
     Davidson diagonalization with overlap
     ethr =  6.81E-10,  avg # of iterations =  2.0

     negative rho (up, down):  9.439E-05 0.000E+00

     add environment contribution to local potential
     Polarization accuracy = 7.6E-12, # of iterations =  35

     total cpu time spent up to now is     4146.3 secs

     total energy              =   -3442.57307284 Ry
     estimated scf accuracy    <       0.00000184 Ry
     electrostatic embedding   =      -0.04570330 Ry
     cavitation energy         =       0.02024798 Ry
     PV energy                 =      -0.08636909 Ry
     correction to one-el term =     169.07857054 Ry

     iteration # 22     ecut=    50.00 Ry     beta= 0.70
     Davidson diagonalization with overlap
     ethr =  4.95E-10,  avg # of iterations =  1.0

     negative rho (up, down):  1.112E-04 0.000E+00

     add environment contribution to local potential
     Polarization accuracy = 7.2E-12, # of iterations =  35

     total cpu time spent up to now is     4295.3 secs

     total energy              =   -3442.57307299 Ry
     estimated scf accuracy    <       0.00000038 Ry
     electrostatic embedding   =      -0.04568193 Ry
     cavitation energy         =       0.02024773 Ry
     PV energy                 =      -0.08636772 Ry
     correction to one-el term =     169.07864319 Ry

     iteration # 23     ecut=    50.00 Ry     beta= 0.70
     Davidson diagonalization with overlap
     ethr =  1.01E-10,  avg # of iterations =  2.0

     negative rho (up, down):  9.648E-05 0.000E+00

     add environment contribution to local potential
     Polarization accuracy = 7.0E-12, # of iterations =  35

     total cpu time spent up to now is     4470.7 secs

     total energy              =   -3442.57307331 Ry
     estimated scf accuracy    <       0.00000014 Ry
     electrostatic embedding   =      -0.04570912 Ry
     cavitation energy         =       0.02024817 Ry
     PV energy                 =      -0.08636562 Ry
     correction to one-el term =     169.06958873 Ry

     iteration # 24     ecut=    50.00 Ry     beta= 0.70
     Davidson diagonalization with overlap
     ethr =  3.73E-11,  avg # of iterations =  2.0

     negative rho (up, down):  9.461E-05 0.000E+00

     add environment contribution to local potential
     Polarization accuracy = 7.6E-12, # of iterations =  37

     total cpu time spent up to now is     4628.6 secs

     total energy              =   -3442.57307347 Ry
     estimated scf accuracy    <       0.00000011 Ry
     electrostatic embedding   =      -0.04573192 Ry
     cavitation energy         =       0.02024851 Ry
     PV energy                 =      -0.08636518 Ry
     correction to one-el term =     169.06209935 Ry

     iteration # 25     ecut=    50.00 Ry     beta= 0.70
     Davidson diagonalization with overlap
     ethr =  2.99E-11,  avg # of iterations =  1.0

     negative rho (up, down):  7.931E-05 0.000E+00

     add environment contribution to local potential
     Polarization accuracy = 6.7E-12, # of iterations =  35

     total cpu time spent up to now is     4770.2 secs

     total energy              =   -3442.57307365 Ry
     estimated scf accuracy    <       0.00000008 Ry
     electrostatic embedding   =      -0.04574333 Ry
     cavitation energy         =       0.02024875 Ry
     PV energy                 =      -0.08636496 Ry
     correction to one-el term =     169.05789640 Ry

     iteration # 26     ecut=    50.00 Ry     beta= 0.70
     Davidson diagonalization with overlap
     ethr =  2.14E-11,  avg # of iterations =  2.0

     negative rho (up, down):  7.310E-05 0.000E+00

     add environment contribution to local potential
     Polarization accuracy = 6.7E-12, # of iterations =  35

     total cpu time spent up to now is     4922.6 secs

     total energy              =   -3442.57307401 Ry
     estimated scf accuracy    <       0.00000007 Ry
     electrostatic embedding   =      -0.04575217 Ry
     cavitation energy         =       0.02024908 Ry
     PV energy                 =      -0.08636478 Ry
     correction to one-el term =     169.05196202 Ry

     iteration # 27     ecut=    50.00 Ry     beta= 0.70
     Davidson diagonalization with overlap
     ethr =  1.78E-11,  avg # of iterations =  1.0

     negative rho (up, down):  7.003E-05 0.000E+00

     add environment contribution to local potential
     Polarization accuracy = 6.6E-12, # of iterations =  35

     total cpu time spent up to now is     5076.3 secs

     total energy              =   -3442.57307430 Ry
     estimated scf accuracy    <       0.00000006 Ry
     electrostatic embedding   =      -0.04575686 Ry
     cavitation energy         =       0.02024921 Ry
     PV energy                 =      -0.08636476 Ry
     correction to one-el term =     169.04972725 Ry

     iteration # 28     ecut=    50.00 Ry     beta= 0.70
     Davidson diagonalization with overlap
     ethr =  1.69E-11,  avg # of iterations =  1.0

     negative rho (up, down):  6.502E-05 0.000E+00

     add environment contribution to local potential
     Polarization accuracy = 7.8E-12, # of iterations =  34

     total cpu time spent up to now is     5249.9 secs

     total energy              =   -3442.57307466 Ry
     estimated scf accuracy    <       0.00000006 Ry
     electrostatic embedding   =      -0.04575589 Ry
     cavitation energy         =       0.02024927 Ry
     PV energy                 =      -0.08636480 Ry
     correction to one-el term =     169.04934314 Ry

     iteration # 29     ecut=    50.00 Ry     beta= 0.70
     Davidson diagonalization with overlap
     ethr =  1.60E-11,  avg # of iterations =  2.0

     negative rho (up, down):  6.896E-05 0.000E+00

     add environment contribution to local potential
     Polarization accuracy = 5.9E-12, # of iterations =  35

     total cpu time spent up to now is     5391.1 secs

     total energy              =   -3442.57307609 Ry
     estimated scf accuracy    <       0.00000005 Ry
     electrostatic embedding   =      -0.04575551 Ry
     cavitation energy         =       0.02024942 Ry
     PV energy                 =      -0.08636471 Ry
     correction to one-el term =     169.04824402 Ry

     iteration # 30     ecut=    50.00 Ry     beta= 0.70
     Davidson diagonalization with overlap
     ethr =  1.41E-11,  avg # of iterations =  6.0

     negative rho (up, down):  6.847E-05 0.000E+00

     add environment contribution to local potential
     Polarization accuracy = 6.5E-12, # of iterations =  36

     total cpu time spent up to now is     5532.4 secs

     total energy              =   -3442.57307961 Ry
     estimated scf accuracy    <       0.00000003 Ry
     electrostatic embedding   =      -0.04574174 Ry
     cavitation energy         =       0.02024927 Ry
     PV energy                 =      -0.08636520 Ry
     correction to one-el term =     169.05420173 Ry

     iteration # 31     ecut=    50.00 Ry     beta= 0.70
     Davidson diagonalization with overlap
     ethr =  7.62E-12,  avg # of iterations =  6.0

     negative rho (up, down):  6.627E-05 0.000E+00

     add environment contribution to local potential
     Polarization accuracy = 5.2E-12, # of iterations =  35

     total cpu time spent up to now is     5696.5 secs

     total energy              =   -3442.57308485 Ry
     estimated scf accuracy    <       0.00000001 Ry
     electrostatic embedding   =      -0.04575156 Ry
     cavitation energy         =       0.02024948 Ry
     PV energy                 =      -0.08636521 Ry
     correction to one-el term =     169.05200962 Ry

     iteration # 32     ecut=    50.00 Ry     beta= 0.70
     Davidson diagonalization with overlap
     ethr =  4.03E-12,  avg # of iterations =  2.0

     negative rho (up, down):  6.891E-05 0.000E+00

     add environment contribution to local potential
     Polarization accuracy = 5.2E-12, # of iterations =  35

     total cpu time spent up to now is     5882.9 secs

     total energy              =   -3442.57308685 Ry
     estimated scf accuracy    <          8.5E-09 Ry
     electrostatic embedding   =      -0.04575789 Ry
     cavitation energy         =       0.02024956 Ry
     PV energy                 =      -0.08636515 Ry
     correction to one-el term =     169.04975053 Ry

     iteration # 33     ecut=    50.00 Ry     beta= 0.70
     Davidson diagonalization with overlap
     ethr =  2.29E-12,  avg # of iterations =  5.0

     negative rho (up, down):  7.000E-05 0.000E+00

     add environment contribution to local potential
     Polarization accuracy = 5.3E-12, # of iterations =  35

     total cpu time spent up to now is     6039.9 secs

     total energy              =   -3442.57308797 Ry
     estimated scf accuracy    <          5.1E-09 Ry
     electrostatic embedding   =      -0.04575647 Ry
     cavitation energy         =       0.02024944 Ry
     PV energy                 =      -0.08636521 Ry
     correction to one-el term =     169.05074458 Ry

     iteration # 34     ecut=    50.00 Ry     beta= 0.70
     Davidson diagonalization with overlap
     ethr =  1.37E-12,  avg # of iterations =  2.0

     negative rho (up, down):  7.046E-05 0.000E+00

     add environment contribution to local potential
     Polarization accuracy = 5.3E-12, # of iterations =  35

     total cpu time spent up to now is     6209.7 secs

     total energy              =   -3442.57308838 Ry
     estimated scf accuracy    <          3.5E-09 Ry
     electrostatic embedding   =      -0.04575634 Ry
     cavitation energy         =       0.02024937 Ry
     PV energy                 =      -0.08636517 Ry
     correction to one-el term =     169.05097402 Ry

     iteration # 35     ecut=    50.00 Ry     beta= 0.70
     Davidson diagonalization with overlap
     ethr =  9.34E-13,  avg # of iterations =  2.0

     negative rho (up, down):  7.168E-05 0.000E+00

     add environment contribution to local potential
     Polarization accuracy = 5.2E-12, # of iterations =  35

     total cpu time spent up to now is     6366.2 secs

     total energy              =   -3442.57308895 Ry
     estimated scf accuracy    <          2.2E-09 Ry
     electrostatic embedding   =      -0.04575760 Ry
     cavitation energy         =       0.02024933 Ry
     PV energy                 =      -0.08636509 Ry
     correction to one-el term =     169.05052147 Ry

     iteration # 36     ecut=    50.00 Ry     beta= 0.70
     Davidson diagonalization with overlap
     ethr =  5.82E-13,  avg # of iterations =  5.0

     negative rho (up, down):  7.531E-05 0.000E+00

     the potential shift due to the Gaussian-smeared nuclei is    -1.3514 ev

     total cpu time spent up to now is     6526.9 secs

     End of self-consistent calculation

          k = 0.2500 0.2666 0.0000 ( 35123 PWs)   bands (ev):

   -75.2927 -75.2881 -75.2293 -75.2253 -75.1628 -75.1588 -75.1507 -75.1466
   -75.1103 -75.1058 -75.0977 -75.0932 -45.5937 -45.5892 -45.5590 -45.5534
   -45.4269 -45.4227 -45.4147 -45.4105 -45.3318 -45.2727 -45.2676 -45.2601
   -45.2549 -45.2392 -45.1925 -45.1800 -45.1748 -45.1626 -45.1355 -45.1050
   -45.1045 -45.0924 -45.0921 -45.0867 -45.0798 -45.0494 -45.0364 -45.0344
   -45.0246 -45.0241 -45.0220 -45.0124 -44.9491 -44.9365 -44.9348 -44.9222
   -24.8589 -24.8414 -24.7823 -24.7647 -21.8923 -21.7755 -21.6331 -21.3890
   -21.3114 -21.2437 -21.2209 -21.1521 -21.1119 -21.0878 -21.0406 -21.0245
   -20.9716 -20.8676 -20.8675 -20.7577 -20.7443 -20.5802 -20.5463 -20.5337
   -20.4451 -20.3928 -20.3330 -20.1265 -12.8490 -12.8316 -12.7803 -12.7628
   -10.4620 -10.2411 -10.1058 -10.0910  -9.8847  -9.8696  -9.8259  -9.3517
    -9.3231  -9.2250  -9.2196  -9.1751  -9.1514  -9.0536  -8.9520  -8.9367
    -8.9315  -8.9078  -8.7820  -8.7785  -8.7111  -8.6137  -8.6034  -8.5031
    -8.4262  -8.3375  -8.2797  -8.2678  -8.1717  -8.0626  -8.0266  -8.0138
    -7.9201  -7.7384  -7.6561  -7.6170  -7.6067  -7.3882  -7.2873  -7.2662
    -7.2649  -7.2429  -7.0392  -6.9101  -6.8716  -6.8464  -6.6965  -6.6267
    -6.6227  -6.6067  -6.5776  -6.4624  -6.2353  -6.2256  -6.2207  -6.1497
    -6.1283  -5.9961  -5.9680  -5.9380  -5.9158  -5.7913  -5.7760  -5.6728
    -5.5642  -5.4453  -5.3397  -5.2494  -5.1500  -5.1235  -5.0172  -5.0060
    -4.8995  -4.7932  -4.7497  -4.6914  -4.6310  -4.5475  -4.4994  -4.2593
    -3.1675  -3.1491  -3.0725  -2.9319  -2.8351  -2.8124  -2.7975  -2.7493
    -2.6862  -2.6633  -2.6301  -2.5806  -2.5515  -2.5288  -2.5099  -2.4615
    -2.4451  -2.4409  -2.3716  -2.3630  -2.2867  -2.2768  -2.0939  -2.0347
    -1.9706  -1.9491  -1.8561  -1.5266  -1.3451  -1.3036  -1.1620  -1.1076
    -0.9784  -0.9644  -0.8524  -0.8388  -0.6855  -0.6184   0.0357   0.1673
     0.2398   0.4400   0.5066   0.5448   0.5706   0.7027   1.1227   1.2999
     1.3758   1.4690   1.6778   1.8041   1.9079   2.0240   2.0356   2.1303
     2.2222   2.2233   2.2689   2.3098   2.3761   2.6054   2.7430

     the Fermi energy is    -1.8748 ev

!    total energy              =   -3442.57308936 Ry
     estimated scf accuracy    <          5.3E-10 Ry
     smearing contrib. (-TS)   =       0.09012392 Ry
     internal energy E=F+TS    =   -3442.66321329 Ry

     The total energy is F=E-TS. E is the sum of the following terms:
     one-electron contribution =  -24721.52605985 Ry
     hartree contribution      =   12370.29338665 Ry
     xc contribution           =    -452.90534727 Ry
     ewald contribution        =    9458.96412064 Ry
     one-center paw contrib.   =    -266.42799262 Ry
     electrostatic embedding   =      -0.04575631 Ry
     cavitation energy         =       0.02024922 Ry
     PV energy                 =      -0.08636494 Ry
     correction to one-el term =     169.05055121 Ry

     WARNING: you are using the parabolic pbc correction;
              the potential shift above must be added to 
              band and Fermi energies.

     convergence has been achieved in  36 iterations

     negative rho (up, down):  7.531E-05 0.000E+00

     Forces acting on atoms (cartesian axes, Ry/au):

     atom    1 type  1   force =     0.00216389    0.00000000   -0.00068870
     atom    2 type  1   force =     0.00212721    0.00000000   -0.00067971
     atom    3 type  1   force =     0.00001029    0.00000000   -0.00211946
     atom    4 type  1   force =     0.00001052    0.00000000   -0.00211943
     atom    5 type  2   force =    -0.00004365    0.00000000   -0.00104247
     atom    6 type  2   force =    -0.00004361    0.00000000   -0.00104198
     atom    7 type  1   force =     0.00008832   -0.00072149   -0.00042414
     atom    8 type  1   force =     0.00008819   -0.00072209   -0.00042387
     atom    9 type  2   force =     0.00010360    0.00000000   -0.00109177
     atom   10 type  2   force =     0.00010508    0.00000000   -0.00109240
     atom   11 type  1   force =     0.00008832    0.00072149   -0.00042414
     atom   12 type  1   force =     0.00008819    0.00072209   -0.00042387
     atom   13 type  1   force =    -0.00000833    0.00000000   -0.00033260
     atom   14 type  1   force =    -0.00000789    0.00000000   -0.00033199
     atom   15 type  1   force =     0.00075975    0.00000000   -0.00208982
     atom   16 type  1   force =     0.00075862    0.00000000   -0.00208979
     atom   17 type  2   force =    -0.00091979    0.00000000    0.00000000
     atom   18 type  2   force =    -0.00091959    0.00000000    0.00000000
     atom   19 type  1   force =    -0.00120096    0.00098943    0.00000000
     atom   20 type  1   force =    -0.00120254    0.00098893    0.00000000
     atom   21 type  2   force =    -0.00153322    0.00000000    0.00000000
     atom   22 type  2   force =    -0.00153295    0.00000000    0.00000000
     atom   23 type  1   force =    -0.00120096   -0.00098943    0.00000000
     atom   24 type  1   force =    -0.00120254   -0.00098893    0.00000000
     atom   25 type  1   force =     0.00075975    0.00000000    0.00208982
     atom   26 type  1   force =     0.00075862    0.00000000    0.00208979
     atom   27 type  1   force =    -0.00000833    0.00000000    0.00033260
     atom   28 type  1   force =    -0.00000789    0.00000000    0.00033199
     atom   29 type  2   force =    -0.00004365    0.00000000    0.00104247
     atom   30 type  2   force =    -0.00004361    0.00000000    0.00104198
     atom   31 type  1   force =     0.00008832   -0.00072149    0.00042414
     atom   32 type  1   force =     0.00008819   -0.00072209    0.00042387
     atom   33 type  2   force =     0.00010360    0.00000000    0.00109177
     atom   34 type  2   force =     0.00010508    0.00000000    0.00109240
     atom   35 type  1   force =     0.00008832    0.00072149    0.00042414
     atom   36 type  1   force =     0.00008819    0.00072209    0.00042387
     atom   37 type  1   force =     0.00001029    0.00000000    0.00211946
     atom   38 type  1   force =     0.00001052    0.00000000    0.00211943
     atom   39 type  1   force =     0.00216389    0.00000000    0.00068870
     atom   40 type  1   force =     0.00212721    0.00000000    0.00067971
     atom   41 type  3   force =    -0.00087120    0.00000000    0.00115442
     atom   42 type  3   force =    -0.00087120    0.00000000   -0.00115442
     atom   43 type  3   force =    -0.00083642    0.00000000    0.00114615
     atom   44 type  3   force =    -0.00083642    0.00000000   -0.00114615
     atom   45 type  3   force =     0.00006878    0.00039561    0.00183066
     atom   46 type  3   force =     0.00006878    0.00039561   -0.00183066
     atom   47 type  3   force =     0.00006891    0.00039558    0.00183064
     atom   48 type  3   force =     0.00006891    0.00039558   -0.00183064
     atom   49 type  3   force =     0.00006878   -0.00039561    0.00183066
     atom   50 type  3   force =     0.00006878   -0.00039561   -0.00183066
     atom   51 type  3   force =     0.00006891   -0.00039558    0.00183064
     atom   52 type  3   force =     0.00006891   -0.00039558   -0.00183064
     The non-local contrib.  to forces
     atom    1 type  1   force =     1.69416957    0.00000000    0.22292659
     atom    2 type  1   force =     1.69416624    0.00000000    0.22292261
     atom    3 type  1   force =    -0.07917920    0.00000000   -1.42616283
     atom    4 type  1   force =    -0.07917949    0.00000000   -1.42616276
     atom    5 type  2   force =    -0.00142994    0.00000000    0.03995681
     atom    6 type  2   force =    -0.00143012    0.00000000    0.03995686
     atom    7 type  1   force =    -0.00718124   -0.09448294   -0.01173900
     atom    8 type  1   force =    -0.00718144   -0.09448406   -0.01173773
     atom    9 type  2   force =     0.00018644    0.00000000    0.04772082
     atom   10 type  2   force =     0.00018509    0.00000000    0.04772054
     atom   11 type  1   force =    -0.00718124    0.09448294   -0.01173900
     atom   12 type  1   force =    -0.00718144    0.09448406   -0.01173773
     atom   13 type  1   force =     0.00535418    0.00000000   -0.17845026
     atom   14 type  1   force =     0.00535388    0.00000000   -0.17845087
     atom   15 type  1   force =    -0.00715258    0.00000000   -0.04142005
     atom   16 type  1   force =    -0.00715282    0.00000000   -0.04142131
     atom   17 type  2   force =     0.00372084    0.00000000    0.00000000
     atom   18 type  2   force =     0.00372078    0.00000000    0.00000000
     atom   19 type  1   force =     0.00021526    0.04775878    0.00000000
     atom   20 type  1   force =     0.00021526    0.04775877    0.00000000
     atom   21 type  2   force =     0.00015837    0.00000000    0.00000000
     atom   22 type  2   force =     0.00015807    0.00000000    0.00000000
     atom   23 type  1   force =     0.00021526   -0.04775878    0.00000000
     atom   24 type  1   force =     0.00021526   -0.04775877    0.00000000
     atom   25 type  1   force =    -0.00715258    0.00000000    0.04142005
     atom   26 type  1   force =    -0.00715282    0.00000000    0.04142131
     atom   27 type  1   force =     0.00535418    0.00000000    0.17845026
     atom   28 type  1   force =     0.00535388    0.00000000    0.17845087
     atom   29 type  2   force =    -0.00142994    0.00000000   -0.03995681
     atom   30 type  2   force =    -0.00143012    0.00000000   -0.03995686
     atom   31 type  1   force =    -0.00718124   -0.09448294    0.01173900
     atom   32 type  1   force =    -0.00718144   -0.09448406    0.01173773
     atom   33 type  2   force =     0.00018644    0.00000000   -0.04772082
     atom   34 type  2   force =     0.00018509    0.00000000   -0.04772054
     atom   35 type  1   force =    -0.00718124    0.09448294    0.01173900
     atom   36 type  1   force =    -0.00718144    0.09448406    0.01173773
     atom   37 type  1   force =    -0.07917920    0.00000000    1.42616283
     atom   38 type  1   force =    -0.07917949    0.00000000    1.42616276
     atom   39 type  1   force =     1.69416957    0.00000000   -0.22292659
     atom   40 type  1   force =     1.69416624    0.00000000   -0.22292261
     atom   41 type  3   force =    -0.10220683    0.00000000    0.02530791
     atom   42 type  3   force =    -0.10220683    0.00000000   -0.02530791
     atom   43 type  3   force =    -0.10221465    0.00000000    0.02530991
     atom   44 type  3   force =    -0.10221465    0.00000000   -0.02530991
     atom   45 type  3   force =     0.00235927   -0.08794695    0.05544410
     atom   46 type  3   force =     0.00235927   -0.08794695   -0.05544410
     atom   47 type  3   force =     0.00235928   -0.08794695    0.05544410
     atom   48 type  3   force =     0.00235928   -0.08794695   -0.05544410
     atom   49 type  3   force =     0.00235927    0.08794695    0.05544410
     atom   50 type  3   force =     0.00235927    0.08794695   -0.05544410
     atom   51 type  3   force =     0.00235928    0.08794695    0.05544410
     atom   52 type  3   force =     0.00235928    0.08794695   -0.05544410
     The ionic contribution  to forces
     atom    1 type  1   force =    -2.87244785    0.00000013  -91.94470965
     atom    2 type  1   force =    -2.87262108    0.00000013  -91.94463607
     atom    3 type  1   force =     0.17507609   -0.00000023  -87.60244089
     atom    4 type  1   force =     0.17506147   -0.00000023  -87.60243860
     atom    5 type  2   force =    -0.03972962   -0.00000274 -165.10329966
     atom    6 type  2   force =    -0.03973679   -0.00000274 -165.10328606
     atom    7 type  1   force =     0.02665230   -1.19457856  -63.87868191
     atom    8 type  1   force =     0.02664064   -1.19458101  -63.87866423
     atom    9 type  2   force =    -0.08341387    0.00000328 -166.96795022
     atom   10 type  2   force =    -0.08346592    0.00000328 -166.96796416
     atom   11 type  1   force =     0.02665230    1.19457918  -63.87867953
     atom   12 type  1   force =     0.02664064    1.19458163  -63.87866186
     atom   13 type  1   force =    -0.06698555   -0.00000203  -37.93834738
     atom   14 type  1   force =    -0.06698934   -0.00000203  -37.93834539
     atom   15 type  1   force =     0.06202381    0.00000993  -25.65189168
     atom   16 type  1   force =     0.06202244    0.00000993  -25.65189381
     atom   17 type  2   force =     0.09196042    0.00001268   -0.00047561
     atom   18 type  2   force =     0.09195592    0.00001268   -0.00047561
     atom   19 type  1   force =    -0.03533705    1.15583473   -0.00008717
     atom   20 type  1   force =    -0.03534675    1.15583521   -0.00008717
     atom   21 type  2   force =    -0.14980100    0.00011264   -0.00026456
     atom   22 type  2   force =    -0.14980301    0.00011264   -0.00026456
     atom   23 type  1   force =    -0.03533754   -1.15597795   -0.00008717
     atom   24 type  1   force =    -0.03534724   -1.15597842   -0.00008717
     atom   25 type  1   force =     0.06202647    0.00000993   25.65169607
     atom   26 type  1   force =     0.06202510    0.00000993   25.65169820
     atom   27 type  1   force =    -0.06698619   -0.00000203   37.93863227
     atom   28 type  1   force =    -0.06698998   -0.00000203   37.93863028
     atom   29 type  2   force =    -0.03972766   -0.00000274  165.10363252
     atom   30 type  2   force =    -0.03973482   -0.00000274  165.10361891
     atom   31 type  1   force =     0.02665358   -1.19460463   63.87875236
     atom   32 type  1   force =     0.02664192   -1.19460708   63.87873468
     atom   33 type  2   force =    -0.08341987    0.00000328  166.96809836
     atom   34 type  2   force =    -0.08347192    0.00000328  166.96811230
     atom   35 type  1   force =     0.02665358    1.19460525   63.87874999
     atom   36 type  1   force =     0.02664192    1.19460770   63.87873231
     atom   37 type  1   force =     0.17508444   -0.00000023   87.60244790
     atom   38 type  1   force =     0.17506983   -0.00000023   87.60244561
     atom   39 type  1   force =    -2.87250134    0.00000013   91.94485645
     atom   40 type  1   force =    -2.87267458    0.00000013   91.94478288
     atom   41 type  3   force =     2.98291723    0.00000002  -15.64099670
     atom   42 type  3   force =     2.98297453    0.00000002   15.64098770
     atom   43 type  3   force =     2.98306281    0.00000002  -15.64103838
     atom   44 type  3   force =     2.98312012    0.00000002   15.64102938
     atom   45 type  3   force =    -0.07320632    2.32562814  -16.53258210
     atom   46 type  3   force =    -0.07321152    2.32583957   16.53261136
     atom   47 type  3   force =    -0.07321063    2.32562788  -16.53258133
     atom   48 type  3   force =    -0.07321583    2.32583930   16.53261060
     atom   49 type  3   force =    -0.07320632   -2.32562817  -16.53258206
     atom   50 type  3   force =    -0.07321152   -2.32583960   16.53261132
     atom   51 type  3   force =    -0.07321063   -2.32562791  -16.53258130
     atom   52 type  3   force =    -0.07321583   -2.32583933   16.53261056
     The local contribution  to forces
     atom    1 type  1   force =     1.18576584    0.00000000   91.63649737
     atom    2 type  1   force =     1.18590548    0.00000000   91.63643831
     atom    3 type  1   force =    -0.09647206    0.00000000   89.07076821
     atom    4 type  1   force =    -0.09646136   -0.00000000   89.07076558
     atom    5 type  2   force =     0.04120242   -0.00000000  165.08836797
     atom    6 type  2   force =     0.04121452    0.00000000  165.08835680
     atom    7 type  1   force =    -0.01926710    1.29891967   63.88338714
     atom    8 type  1   force =    -0.01925728    1.29892715   63.88336911
     atom    9 type  2   force =     0.08271775    0.00000000  166.88552960
     atom   10 type  2   force =     0.08276903    0.00000000  166.88553981
     atom   11 type  1   force =    -0.01926710   -1.29891967   63.88338714
     atom   12 type  1   force =    -0.01925728   -1.29892715   63.88336911
     atom   13 type  1   force =     0.06164398    0.00000000   38.11648762
     atom   14 type  1   force =     0.06164290   -0.00000000   38.11647791
     atom   15 type  1   force =    -0.05419364   -0.00000000   25.68829631
     atom   16 type  1   force =    -0.05418334    0.00000000   25.68829647
     atom   17 type  2   force =    -0.09660424    0.00000000   -0.00582617
     atom   18 type  2   force =    -0.09659544    0.00000000   -0.00582617
     atom   19 type  1   force =     0.03390639   -1.20188480   -0.00244523
     atom   20 type  1   force =     0.03393067   -1.20187868   -0.00244523
     atom   21 type  2   force =     0.14810553    0.00000000   -0.00600795
     atom   22 type  2   force =     0.14811901    0.00000000   -0.00600795
     atom   23 type  1   force =     0.03390681    1.20152777   -0.00244523
     atom   24 type  1   force =     0.03393109    1.20152165   -0.00244523
     atom   25 type  1   force =    -0.05419120   -0.00000000  -25.69005145
     atom   26 type  1   force =    -0.05418089    0.00000000  -25.69005161
     atom   27 type  1   force =     0.06164585    0.00000000  -38.11825552
     atom   28 type  1   force =     0.06164477   -0.00000000  -38.11824581
     atom   29 type  2   force =     0.04120720   -0.00000000 -165.09432748
     atom   30 type  2   force =     0.04121931    0.00000000 -165.09431631
     atom   31 type  1   force =    -0.01926780    1.29894815  -63.88581758
     atom   32 type  1   force =    -0.01925798    1.29895563  -63.88579954
     atom   33 type  2   force =     0.08272298   -0.00000000 -166.89137096
     atom   34 type  2   force =     0.08277425    0.00000000 -166.89138118
     atom   35 type  1   force =    -0.01926780   -1.29894815  -63.88581758
     atom   36 type  1   force =    -0.01925798   -1.29895563  -63.88579954
     atom   37 type  1   force =    -0.09647151   -0.00000000  -89.07443972
     atom   38 type  1   force =    -0.09646081    0.00000000  -89.07443709
     atom   39 type  1   force =     1.18578083   -0.00000000  -91.63810208
     atom   40 type  1   force =     1.18592048    0.00000000  -91.63804303
     atom   41 type  3   force =    -2.88130033    0.00000000   15.60296841
     atom   42 type  3   force =    -2.88130033    0.00000000  -15.60296841
     atom   43 type  3   force =    -2.88140343    0.00000000   15.60299969
     atom   44 type  3   force =    -2.88140343    0.00000000  -15.60299969
     atom   45 type  3   force =     0.07066962   -2.22520937   16.49244653
     atom   46 type  3   force =     0.07066962   -2.22520937  -16.49244653
     atom   47 type  3   force =     0.07067384   -2.22520905   16.49244578
     atom   48 type  3   force =     0.07067384   -2.22520905  -16.49244578
     atom   49 type  3   force =     0.07066962    2.22520937   16.49244653
     atom   50 type  3   force =     0.07066962    2.22520937  -16.49244653
     atom   51 type  3   force =     0.07067384    2.22520905   16.49244578
     atom   52 type  3   force =     0.07067384    2.22520905  -16.49244578
     The core correction contribution to forces
     atom    1 type  1   force =    -0.01679660   -0.00000000   -0.00266506
     atom    2 type  1   force =    -0.01679612    0.00000000   -0.00266513
     atom    3 type  1   force =     0.00075866   -0.00000000    0.01359075
     atom    4 type  1   force =     0.00075866    0.00000000    0.01359075
     atom    5 type  2   force =     0.00000000    0.00000000    0.00000000
     atom    6 type  2   force =     0.00000000    0.00000000    0.00000000
     atom    7 type  1   force =     0.00008890    0.00072210    0.00027776
     atom    8 type  1   force =     0.00008891    0.00072210    0.00027774
     atom    9 type  2   force =     0.00000000    0.00000000    0.00000000
     atom   10 type  2   force =     0.00000000    0.00000000    0.00000000
     atom   11 type  1   force =     0.00008890   -0.00072210    0.00027776
     atom   12 type  1   force =     0.00008891   -0.00072210    0.00027774
     atom   13 type  1   force =    -0.00002527   -0.00000000    0.00251862
     atom   14 type  1   force =    -0.00002526   -0.00000000    0.00251863
     atom   15 type  1   force =     0.00006987    0.00000000    0.00052381
     atom   16 type  1   force =     0.00006986    0.00000000    0.00052383
     atom   17 type  2   force =     0.00000000    0.00000000    0.00000000
     atom   18 type  2   force =     0.00000000    0.00000000    0.00000000
     atom   19 type  1   force =     0.00000657   -0.00015326   -0.00000199
     atom   20 type  1   force =     0.00000656   -0.00015327   -0.00000199
     atom   21 type  2   force =     0.00000000    0.00000000    0.00000000
     atom   22 type  2   force =     0.00000000    0.00000000    0.00000000
     atom   23 type  1   force =     0.00000657    0.00015271   -0.00000199
     atom   24 type  1   force =     0.00000655    0.00015272   -0.00000199
     atom   25 type  1   force =     0.00006985    0.00000000   -0.00052621
     atom   26 type  1   force =     0.00006984    0.00000000   -0.00052623
     atom   27 type  1   force =    -0.00002526   -0.00000000   -0.00252072
     atom   28 type  1   force =    -0.00002525    0.00000000   -0.00252073
     atom   29 type  2   force =     0.00000000    0.00000000    0.00000000
     atom   30 type  2   force =     0.00000000    0.00000000    0.00000000
     atom   31 type  1   force =     0.00008891    0.00072229   -0.00027987
     atom   32 type  1   force =     0.00008892    0.00072229   -0.00027986
     atom   33 type  2   force =     0.00000000    0.00000000    0.00000000
     atom   34 type  2   force =     0.00000000    0.00000000    0.00000000
     atom   35 type  1   force =     0.00008891   -0.00072229   -0.00027987
     atom   36 type  1   force =     0.00008892   -0.00072229   -0.00027986
     atom   37 type  1   force =     0.00075877   -0.00000000   -0.01359497
     atom   38 type  1   force =     0.00075877   -0.00000000   -0.01359497
     atom   39 type  1   force =    -0.01679731    0.00000000    0.00266291
     atom   40 type  1   force =    -0.01679683   -0.00000000    0.00266298
     atom   41 type  3   force =     0.00000000    0.00000000    0.00000000
     atom   42 type  3   force =     0.00000000    0.00000000    0.00000000
     atom   43 type  3   force =     0.00000000    0.00000000    0.00000000
     atom   44 type  3   force =     0.00000000    0.00000000    0.00000000
     atom   45 type  3   force =     0.00000000    0.00000000    0.00000000
     atom   46 type  3   force =     0.00000000    0.00000000    0.00000000
     atom   47 type  3   force =     0.00000000    0.00000000    0.00000000
     atom   48 type  3   force =     0.00000000    0.00000000    0.00000000
     atom   49 type  3   force =     0.00000000    0.00000000    0.00000000
     atom   50 type  3   force =     0.00000000    0.00000000    0.00000000
     atom   51 type  3   force =     0.00000000    0.00000000    0.00000000
     atom   52 type  3   force =     0.00000000    0.00000000    0.00000000
     The Hubbard contrib.    to forces
     atom    1 type  1   force =     0.00000000    0.00000000    0.00000000
     atom    2 type  1   force =     0.00000000    0.00000000    0.00000000
     atom    3 type  1   force =     0.00000000    0.00000000    0.00000000
     atom    4 type  1   force =     0.00000000    0.00000000    0.00000000
     atom    5 type  2   force =     0.00000000    0.00000000    0.00000000
     atom    6 type  2   force =     0.00000000    0.00000000    0.00000000
     atom    7 type  1   force =     0.00000000    0.00000000    0.00000000
     atom    8 type  1   force =     0.00000000    0.00000000    0.00000000
     atom    9 type  2   force =     0.00000000    0.00000000    0.00000000
     atom   10 type  2   force =     0.00000000    0.00000000    0.00000000
     atom   11 type  1   force =     0.00000000    0.00000000    0.00000000
     atom   12 type  1   force =     0.00000000    0.00000000    0.00000000
     atom   13 type  1   force =     0.00000000    0.00000000    0.00000000
     atom   14 type  1   force =     0.00000000    0.00000000    0.00000000
     atom   15 type  1   force =     0.00000000    0.00000000    0.00000000
     atom   16 type  1   force =     0.00000000    0.00000000    0.00000000
     atom   17 type  2   force =     0.00000000    0.00000000    0.00000000
     atom   18 type  2   force =     0.00000000    0.00000000    0.00000000
     atom   19 type  1   force =     0.00000000    0.00000000    0.00000000
     atom   20 type  1   force =     0.00000000    0.00000000    0.00000000
     atom   21 type  2   force =     0.00000000    0.00000000    0.00000000
     atom   22 type  2   force =     0.00000000    0.00000000    0.00000000
     atom   23 type  1   force =     0.00000000    0.00000000    0.00000000
     atom   24 type  1   force =     0.00000000    0.00000000    0.00000000
     atom   25 type  1   force =     0.00000000    0.00000000    0.00000000
     atom   26 type  1   force =     0.00000000    0.00000000    0.00000000
     atom   27 type  1   force =     0.00000000    0.00000000    0.00000000
     atom   28 type  1   force =     0.00000000    0.00000000    0.00000000
     atom   29 type  2   force =     0.00000000    0.00000000    0.00000000
     atom   30 type  2   force =     0.00000000    0.00000000    0.00000000
     atom   31 type  1   force =     0.00000000    0.00000000    0.00000000
     atom   32 type  1   force =     0.00000000    0.00000000    0.00000000
     atom   33 type  2   force =     0.00000000    0.00000000    0.00000000
     atom   34 type  2   force =     0.00000000    0.00000000    0.00000000
     atom   35 type  1   force =     0.00000000    0.00000000    0.00000000
     atom   36 type  1   force =     0.00000000    0.00000000    0.00000000
     atom   37 type  1   force =     0.00000000    0.00000000    0.00000000
     atom   38 type  1   force =     0.00000000    0.00000000    0.00000000
     atom   39 type  1   force =     0.00000000    0.00000000    0.00000000
     atom   40 type  1   force =     0.00000000    0.00000000    0.00000000
     atom   41 type  3   force =     0.00000000    0.00000000    0.00000000
     atom   42 type  3   force =     0.00000000    0.00000000    0.00000000
     atom   43 type  3   force =     0.00000000    0.00000000    0.00000000
     atom   44 type  3   force =     0.00000000    0.00000000    0.00000000
     atom   45 type  3   force =     0.00000000    0.00000000    0.00000000
     atom   46 type  3   force =     0.00000000    0.00000000    0.00000000
     atom   47 type  3   force =     0.00000000    0.00000000    0.00000000
     atom   48 type  3   force =     0.00000000    0.00000000    0.00000000
     atom   49 type  3   force =     0.00000000    0.00000000    0.00000000
     atom   50 type  3   force =     0.00000000    0.00000000    0.00000000
     atom   51 type  3   force =     0.00000000    0.00000000    0.00000000
     atom   52 type  3   force =     0.00000000    0.00000000    0.00000000
     The SCF correction term to forces
     atom    1 type  1   force =     0.00000194   -0.00000002   -0.00000989
     atom    2 type  1   force =     0.00000293   -0.00000002   -0.00001140
     atom    3 type  1   force =    -0.00000246    0.00000003   -0.00001120
     atom    4 type  1   force =     0.00000254    0.00000003   -0.00001083
     atom    5 type  2   force =     0.00000226    0.00000017   -0.00001195
     atom    6 type  2   force =    -0.00000242    0.00000017   -0.00001432
     atom    7 type  1   force =    -0.00000111    0.00000951   -0.00000731
     atom    8 type  1   force =     0.00000080    0.00000500   -0.00000813
     atom    9 type  2   force =    -0.00000166   -0.00000016   -0.00002812
     atom   10 type  2   force =     0.00000242   -0.00000016   -0.00002476
     atom   11 type  1   force =    -0.00000111   -0.00000956   -0.00000735
     atom   12 type  1   force =     0.00000080   -0.00000505   -0.00000817
     atom   13 type  1   force =    -0.00000281    0.00000009   -0.00000490
     atom   14 type  1   force =     0.00000284    0.00000009    0.00000403
     atom   15 type  1   force =     0.00000490   -0.00000011   -0.00000448
     atom   16 type  1   force =    -0.00000488   -0.00000011   -0.00000125
     atom   17 type  2   force =     0.00000179    0.00000036    0.00001779
     atom   18 type  2   force =    -0.00000220    0.00000036    0.00001779
     atom   19 type  1   force =     0.00000813    0.00000391    0.00000644
     atom   20 type  1   force =    -0.00000802   -0.00000317    0.00000644
     atom   21 type  2   force =     0.00000562   -0.00000036    0.00001751
     atom   22 type  2   force =    -0.00000526   -0.00000036    0.00001751
     atom   23 type  1   force =     0.00000813   -0.00000381    0.00000644
     atom   24 type  1   force =    -0.00000802    0.00000327    0.00000644
     atom   25 type  1   force =     0.00000490   -0.00000011    0.00001339
     atom   26 type  1   force =    -0.00000488   -0.00000011    0.00001016
     atom   27 type  1   force =    -0.00000281    0.00000009    0.00000947
     atom   28 type  1   force =     0.00000285    0.00000009    0.00000054
     atom   29 type  2   force =     0.00000225    0.00000017    0.00000670
     atom   30 type  2   force =    -0.00000243    0.00000017    0.00000907
     atom   31 type  1   force =    -0.00000111    0.00000909    0.00000504
     atom   32 type  1   force =     0.00000080    0.00000458    0.00000586
     atom   33 type  2   force =    -0.00000167   -0.00000016    0.00002155
     atom   34 type  2   force =     0.00000241   -0.00000016    0.00001819
     atom   35 type  1   force =    -0.00000111   -0.00000914    0.00000508
     atom   36 type  1   force =     0.00000080   -0.00000463    0.00000590
     atom   37 type  1   force =    -0.00000246    0.00000003    0.00000736
     atom   38 type  1   force =     0.00000254    0.00000003    0.00000699
     atom   39 type  1   force =     0.00000190   -0.00000002    0.00000684
     atom   40 type  1   force =     0.00000289   -0.00000002    0.00000836
     atom   41 type  3   force =    -0.00000036   -0.00000000   -0.00000184
     atom   42 type  3   force =    -0.00000032   -0.00000000    0.00000137
     atom   43 type  3   force =    -0.00000011   -0.00000000   -0.00000187
     atom   44 type  3   force =    -0.00000007   -0.00000000    0.00000140
     atom   45 type  3   force =    -0.00000017    0.00000080   -0.00000210
     atom   46 type  3   force =    -0.00000017    0.00000079    0.00000158
     atom   47 type  3   force =     0.00000022    0.00000074   -0.00000213
     atom   48 type  3   force =     0.00000021    0.00000073    0.00000160
     atom   49 type  3   force =    -0.00000017   -0.00000080   -0.00000211
     atom   50 type  3   force =    -0.00000017   -0.00000079    0.00000158
     atom   51 type  3   force =     0.00000022   -0.00000074   -0.00000213
     atom   52 type  3   force =     0.00000021   -0.00000072    0.00000160

     Total force =     0.011212     Total SCF correction =     0.000082

     BFGS Geometry Optimization
     Energy error            =      0.0E+00 Ry
     Gradient error          =      2.2E-03 Ry/Bohr

     number of scf cycles    =   1
     number of bfgs steps    =   0

     energy             new  =   -3442.5730893617 Ry

     new trust radius        =       0.0022708389 bohr
     new conv_thr            =       0.0000000010 Ry


ATOMIC_POSITIONS (crystal)
O            -0.0011341091        0.5000000000        0.2614373270
O             0.4988645237        0.5000000000        0.2614374330
O            -0.0032713661        0.0000000000        0.2877554843
O             0.4967286551        0.0000000000        0.2877554844
Ru            0.2478799922        0.0000000000        0.3597296495
Ru            0.7478799895        0.0000000000        0.3597296624
O             0.2489822101        0.3110163562        0.3545248129
O             0.7489822703        0.3110163084        0.3545248174
Ru           -0.0011783279        0.5000000000        0.3558696432
Ru            0.4988217223        0.5000000000        0.3558696333
O             0.2489822101        0.6889836438        0.3545248129
O             0.7489822703        0.6889836916        0.3545248174
O            -0.0014736627        0.0000000000        0.4122050385
O             0.4985263829        0.0000000000        0.4122050458
O            -0.0015617523        0.5000000000        0.4446713122
O             0.4984381750        0.5000000000        0.4446713168
Ru           -0.0008620749        0.0000000000        0.5000010000
Ru            0.4991379442        0.0000000000        0.5000010000
O             0.2494429816        0.1885558915        0.5000010000
O             0.7494429259        0.1885558472        0.5000010000
Ru            0.2489306206        0.5000000000        0.5000010000
Ru            0.7489306234        0.5000000000        0.5000010000
O             0.2494429816        0.8114451085        0.5000010000
O             0.7494429259        0.8114451528        0.5000010000
O            -0.0015617523        0.5000000000        0.5553296878
O             0.4984381750        0.5000000000        0.5553296832
O            -0.0014736627        0.0000000000        0.5877959615
O             0.4985263829        0.0000000000        0.5877959542
Ru            0.2478799922        0.0000000000        0.6402713505
Ru            0.7478799895        0.0000000000        0.6402713376
O             0.2489822101        0.3110163562        0.6454761871
O             0.7489822703        0.3110163084        0.6454761826
Ru           -0.0011783279        0.5000000000        0.6441313568
Ru            0.4988217223        0.5000000000        0.6441313667
O             0.2489822101        0.6889836438        0.6454761871
O             0.7489822703        0.6889836916        0.6454761826
O            -0.0032713661        0.0000000000        0.7122465157
O             0.4967286551        0.0000000000        0.7122465156
O            -0.0011341091        0.5000000000        0.7385636730
O             0.4988645237        0.5000000000        0.7385635670
H             0.1453218812        0.5000000000        0.2508876119
H             0.1453218812        0.5000000000        0.7491123881
H             0.6453232712        0.5000000000        0.2508875283
H             0.6453232712        0.5000000000        0.7491124717
H            -0.0066947054        0.1354785246        0.2629061834
H            -0.0066947054        0.1354785246        0.7370938166
H             0.4933053053        0.1354785219        0.2629061815
H             0.4933053053        0.1354785219        0.7370938185
H            -0.0066947054        0.8645214754        0.2629061834
H            -0.0066947054        0.8645214754        0.7370938166
H             0.4933053053        0.8645214781        0.2629061815
H             0.4933053053        0.8645214781        0.7370938185



     Writing config-only to output data dir /storage/home/mgm6007/ixd4/Maria/Strain2_Files/RuO2-110-0-012345/RuO2-110-0-012345.save/
     NEW-OLD atomic charge density approx. for the potential

     Check: negative core charge=   -0.000001

     negative rho (up, down):  7.516E-05 0.000E+00

     add environment contribution to local potential
     Polarization accuracy = 6.4E-12, # of iterations =  35

     total cpu time spent up to now is     6700.6 secs

     per-process dynamical memory:   206.6 Mb

     Self-consistent Calculation

     iteration #  1     ecut=    50.00 Ry     beta= 0.70
     Davidson diagonalization with overlap
     ethr =  1.00E-06,  avg # of iterations =  2.0

     Threshold (ethr) on eigenvalues was too large:
     Diagonalizing with lowered threshold

     Davidson diagonalization with overlap
     ethr =  5.88E-09,  avg # of iterations =  4.0

     negative rho (up, down):  7.662E-05 0.000E+00

     add environment contribution to local potential
     Polarization accuracy = 5.8E-12, # of iterations =  35

     total cpu time spent up to now is     6853.7 secs

     total energy              =   -3442.57316570 Ry
     estimated scf accuracy    <       0.00002673 Ry
     electrostatic embedding   =      -0.04581415 Ry
     cavitation energy         =       0.02024956 Ry
     PV energy                 =      -0.08635377 Ry
     correction to one-el term =     169.03321576 Ry

     iteration #  2     ecut=    50.00 Ry     beta= 0.70
     Davidson diagonalization with overlap
     ethr =  7.19E-09,  avg # of iterations =  2.0

     negative rho (up, down):  8.284E-05 0.000E+00

     add environment contribution to local potential
     Polarization accuracy = 7.8E-12, # of iterations =  35

     total cpu time spent up to now is     7043.3 secs

     total energy              =   -3442.57316719 Ry
     estimated scf accuracy    <       0.00000720 Ry
     electrostatic embedding   =      -0.04576692 Ry
     cavitation energy         =       0.02025022 Ry
     PV energy                 =      -0.08635556 Ry
     correction to one-el term =     169.03833136 Ry

     iteration #  3     ecut=    50.00 Ry     beta= 0.70
     Davidson diagonalization with overlap
     ethr =  1.94E-09,  avg # of iterations =  2.0

     negative rho (up, down):  8.839E-05 0.000E+00

     add environment contribution to local potential
     Polarization accuracy = 4.5E-12, # of iterations =  35

     total cpu time spent up to now is     7209.7 secs

     total energy              =   -3442.57316741 Ry
     estimated scf accuracy    <       0.00000740 Ry
     electrostatic embedding   =      -0.04573853 Ry
     cavitation energy         =       0.02025153 Ry
     PV energy                 =      -0.08635539 Ry
     correction to one-el term =     169.04893780 Ry

     iteration #  4     ecut=    50.00 Ry     beta= 0.70
     Davidson diagonalization with overlap
     ethr =  1.94E-09,  avg # of iterations =  1.0

     negative rho (up, down):  9.440E-05 0.000E+00

     add environment contribution to local potential
     Polarization accuracy = 2.3E-12, # of iterations =  35

     total cpu time spent up to now is     7367.4 secs

     total energy              =   -3442.57316774 Ry
     estimated scf accuracy    <       0.00000078 Ry
     electrostatic embedding   =      -0.04571581 Ry
     cavitation energy         =       0.02025251 Ry
     PV energy                 =      -0.08635534 Ry
     correction to one-el term =     169.05833425 Ry

     iteration #  5     ecut=    50.00 Ry     beta= 0.70
     Davidson diagonalization with overlap
     ethr =  2.09E-10,  avg # of iterations =  2.0

     negative rho (up, down):  9.624E-05 0.000E+00

     add environment contribution to local potential
     Polarization accuracy = 2.5E-12, # of iterations =  35

     total cpu time spent up to now is     7541.2 secs

     total energy              =   -3442.57316785 Ry
     estimated scf accuracy    <       0.00000116 Ry
     electrostatic embedding   =      -0.04569113 Ry
     cavitation energy         =       0.02025336 Ry
     PV energy                 =      -0.08635559 Ry
     correction to one-el term =     169.06955543 Ry

     iteration #  6     ecut=    50.00 Ry     beta= 0.70
     Davidson diagonalization with overlap
     ethr =  2.09E-10,  avg # of iterations =  1.0

     negative rho (up, down):  9.821E-05 0.000E+00

     add environment contribution to local potential
     Polarization accuracy = 2.5E-12, # of iterations =  35

     total cpu time spent up to now is     7705.9 secs

     total energy              =   -3442.57316783 Ry
     estimated scf accuracy    <       0.00000045 Ry
     electrostatic embedding   =      -0.04568265 Ry
     cavitation energy         =       0.02025358 Ry
     PV energy                 =      -0.08635577 Ry
     correction to one-el term =     169.07381629 Ry

     iteration #  7     ecut=    50.00 Ry     beta= 0.70
     Davidson diagonalization with overlap
     ethr =  1.22E-10,  avg # of iterations =  1.0

     negative rho (up, down):  9.707E-05 0.000E+00

     add environment contribution to local potential
     Polarization accuracy = 5.7E-12, # of iterations =  35

     total cpu time spent up to now is     7859.1 secs

     total energy              =   -3442.57316786 Ry
     estimated scf accuracy    <       0.00000031 Ry
     electrostatic embedding   =      -0.04566322 Ry
     cavitation energy         =       0.02025368 Ry
     PV energy                 =      -0.08635674 Ry
     correction to one-el term =     169.08510080 Ry

     iteration #  8     ecut=    50.00 Ry     beta= 0.70
     Davidson diagonalization with overlap
     ethr =  8.29E-11,  avg # of iterations =  1.0

     negative rho (up, down):  9.450E-05 0.000E+00

     add environment contribution to local potential
     Polarization accuracy = 2.4E-12, # of iterations =  35

     total cpu time spent up to now is     8011.9 secs

     total energy              =   -3442.57316788 Ry
     estimated scf accuracy    <       0.00000010 Ry
     electrostatic embedding   =      -0.04564971 Ry
     cavitation energy         =       0.02025359 Ry
     PV energy                 =      -0.08635769 Ry
     correction to one-el term =     169.09373999 Ry

     iteration #  9     ecut=    50.00 Ry     beta= 0.70
     Davidson diagonalization with overlap
     ethr =  2.67E-11,  avg # of iterations =  1.0

     negative rho (up, down):  8.967E-05 0.000E+00

     add environment contribution to local potential
     Polarization accuracy = 2.9E-12, # of iterations =  35

     total cpu time spent up to now is     8169.9 secs

     total energy              =   -3442.57316789 Ry
     estimated scf accuracy    <       0.00000003 Ry
     electrostatic embedding   =      -0.04564508 Ry
     cavitation energy         =       0.02025348 Ry
     PV energy                 =      -0.08635818 Ry
     correction to one-el term =     169.09720753 Ry

     iteration # 10     ecut=    50.00 Ry     beta= 0.70
     Davidson diagonalization with overlap
     ethr =  7.91E-12,  avg # of iterations =  2.0

     negative rho (up, down):  8.426E-05 0.000E+00

     add environment contribution to local potential
     Polarization accuracy = 2.3E-12, # of iterations =  35

     total cpu time spent up to now is     8333.2 secs

     total energy              =   -3442.57316787 Ry
     estimated scf accuracy    <          7.8E-09 Ry
     electrostatic embedding   =      -0.04564434 Ry
     cavitation energy         =       0.02025331 Ry
     PV energy                 =      -0.08635860 Ry
     correction to one-el term =     169.09886702 Ry

     iteration # 11     ecut=    50.00 Ry     beta= 0.70
     Davidson diagonalization with overlap
     ethr =  2.09E-12,  avg # of iterations =  5.0

     negative rho (up, down):  8.000E-05 0.000E+00

     add environment contribution to local potential
     Polarization accuracy = 3.5E-12, # of iterations =  35

     total cpu time spent up to now is     8515.9 secs

     total energy              =   -3442.57316785 Ry
     estimated scf accuracy    <          1.4E-09 Ry
     electrostatic embedding   =      -0.04564898 Ry
     cavitation energy         =       0.02025317 Ry
     PV energy                 =      -0.08635872 Ry
     correction to one-el term =     169.09746624 Ry

     iteration # 12     ecut=    50.00 Ry     beta= 0.70
     Davidson diagonalization with overlap
     ethr =  3.63E-13,  avg # of iterations =  5.0

[...]
     atom   35 type  1   force =    -0.05603616   -1.27493782  -63.88131407
     atom   36 type  1   force =    -0.05603852   -1.27493729  -63.88132019
     atom   37 type  1   force =    -0.06710495    0.00000000  -89.08368929
     atom   38 type  1   force =    -0.06711047    0.00000000  -89.08369049
     atom   39 type  1   force =     1.17043998    0.00000000  -91.66180458
     atom   40 type  1   force =     1.17041964   -0.00000000  -91.66181270
     atom   41 type  3   force =    -2.89447558   -0.00000000   15.57768249
     atom   42 type  3   force =    -2.89447558    0.00000000  -15.57768249
     atom   43 type  3   force =    -2.89446377    0.00000000   15.57767926
     atom   44 type  3   force =    -2.89446377    0.00000000  -15.57767926
     atom   45 type  3   force =     0.05601292   -2.22971154   16.48757240
     atom   46 type  3   force =     0.05601292   -2.22971154  -16.48757240
     atom   47 type  3   force =     0.05601209   -2.22971156   16.48757263
     atom   48 type  3   force =     0.05601209   -2.22971156  -16.48757263
     atom   49 type  3   force =     0.05601292    2.22971154   16.48757240
     atom   50 type  3   force =     0.05601292    2.22971154  -16.48757240
     atom   51 type  3   force =     0.05601209    2.22971156   16.48757263
     atom   52 type  3   force =     0.05601209    2.22971156  -16.48757263
     The core correction contribution to forces
     atom    1 type  1   force =    -0.01670398    0.00000000   -0.00294777
     atom    2 type  1   force =    -0.01670404    0.00000000   -0.00294776
     atom    3 type  1   force =     0.00053947   -0.00000000    0.01348266
     atom    4 type  1   force =     0.00053947    0.00000000    0.01348266
     atom    5 type  2   force =     0.00000000    0.00000000    0.00000000
     atom    6 type  2   force =     0.00000000    0.00000000    0.00000000
     atom    7 type  1   force =     0.00015434    0.00071851    0.00027305
     atom    8 type  1   force =     0.00015434    0.00071851    0.00027305
     atom    9 type  2   force =     0.00000000    0.00000000    0.00000000
     atom   10 type  2   force =     0.00000000    0.00000000    0.00000000
     atom   11 type  1   force =     0.00015434   -0.00071851    0.00027305
     atom   12 type  1   force =     0.00015434   -0.00071851    0.00027305
     atom   13 type  1   force =     0.00000502   -0.00000000    0.00250010
     atom   14 type  1   force =     0.00000501    0.00000000    0.00250010
     atom   15 type  1   force =     0.00001088   -0.00000000    0.00047795
     atom   16 type  1   force =     0.00001089   -0.00000000    0.00047795
     atom   17 type  2   force =     0.00000000    0.00000000    0.00000000
     atom   18 type  2   force =     0.00000000    0.00000000    0.00000000
     atom   19 type  1   force =    -0.00004446   -0.00013878   -0.00000199
     atom   20 type  1   force =    -0.00004446   -0.00013878   -0.00000199
     atom   21 type  2   force =     0.00000000    0.00000000    0.00000000
     atom   22 type  2   force =     0.00000000    0.00000000    0.00000000
     atom   23 type  1   force =    -0.00004446    0.00013823   -0.00000199
     atom   24 type  1   force =    -0.00004446    0.00013823   -0.00000199
     atom   25 type  1   force =     0.00001087    0.00000000   -0.00048035
     atom   26 type  1   force =     0.00001087   -0.00000000   -0.00048035
     atom   27 type  1   force =     0.00000502    0.00000000   -0.00250220
     atom   28 type  1   force =     0.00000502    0.00000000   -0.00250220
     atom   29 type  2   force =     0.00000000    0.00000000    0.00000000
     atom   30 type  2   force =     0.00000000    0.00000000    0.00000000
     atom   31 type  1   force =     0.00015434    0.00071870   -0.00027516
     atom   32 type  1   force =     0.00015434    0.00071870   -0.00027516
     atom   33 type  2   force =     0.00000000    0.00000000    0.00000000
     atom   34 type  2   force =     0.00000000    0.00000000    0.00000000
     atom   35 type  1   force =     0.00015434   -0.00071870   -0.00027516
     atom   36 type  1   force =     0.00015434   -0.00071870   -0.00027516
     atom   37 type  1   force =     0.00053955   -0.00000000   -0.01348684
     atom   38 type  1   force =     0.00053956   -0.00000000   -0.01348684
     atom   39 type  1   force =    -0.01670467    0.00000000    0.00294564
     atom   40 type  1   force =    -0.01670474    0.00000000    0.00294563
     atom   41 type  3   force =     0.00000000    0.00000000    0.00000000
     atom   42 type  3   force =     0.00000000    0.00000000    0.00000000
     atom   43 type  3   force =     0.00000000    0.00000000    0.00000000
     atom   44 type  3   force =     0.00000000    0.00000000    0.00000000
     atom   45 type  3   force =     0.00000000    0.00000000    0.00000000
     atom   46 type  3   force =     0.00000000    0.00000000    0.00000000
     atom   47 type  3   force =     0.00000000    0.00000000    0.00000000
     atom   48 type  3   force =     0.00000000    0.00000000    0.00000000
     atom   49 type  3   force =     0.00000000    0.00000000    0.00000000
     atom   50 type  3   force =     0.00000000    0.00000000    0.00000000
     atom   51 type  3   force =     0.00000000    0.00000000    0.00000000
     atom   52 type  3   force =     0.00000000    0.00000000    0.00000000
     The Hubbard contrib.    to forces
     atom    1 type  1   force =     0.00000000    0.00000000    0.00000000
     atom    2 type  1   force =     0.00000000    0.00000000    0.00000000
     atom    3 type  1   force =     0.00000000    0.00000000    0.00000000
     atom    4 type  1   force =     0.00000000    0.00000000    0.00000000
     atom    5 type  2   force =     0.00000000    0.00000000    0.00000000
     atom    6 type  2   force =     0.00000000    0.00000000    0.00000000
     atom    7 type  1   force =     0.00000000    0.00000000    0.00000000
     atom    8 type  1   force =     0.00000000    0.00000000    0.00000000
     atom    9 type  2   force =     0.00000000    0.00000000    0.00000000
     atom   10 type  2   force =     0.00000000    0.00000000    0.00000000
     atom   11 type  1   force =     0.00000000    0.00000000    0.00000000
     atom   12 type  1   force =     0.00000000    0.00000000    0.00000000
     atom   13 type  1   force =     0.00000000    0.00000000    0.00000000
     atom   14 type  1   force =     0.00000000    0.00000000    0.00000000
     atom   15 type  1   force =     0.00000000    0.00000000    0.00000000
     atom   16 type  1   force =     0.00000000    0.00000000    0.00000000
     atom   17 type  2   force =     0.00000000    0.00000000    0.00000000
     atom   18 type  2   force =     0.00000000    0.00000000    0.00000000
     atom   19 type  1   force =     0.00000000    0.00000000    0.00000000
     atom   20 type  1   force =     0.00000000    0.00000000    0.00000000
     atom   21 type  2   force =     0.00000000    0.00000000    0.00000000
     atom   22 type  2   force =     0.00000000    0.00000000    0.00000000
     atom   23 type  1   force =     0.00000000    0.00000000    0.00000000
     atom   24 type  1   force =     0.00000000    0.00000000    0.00000000
     atom   25 type  1   force =     0.00000000    0.00000000    0.00000000
     atom   26 type  1   force =     0.00000000    0.00000000    0.00000000
     atom   27 type  1   force =     0.00000000    0.00000000    0.00000000
     atom   28 type  1   force =     0.00000000    0.00000000    0.00000000
     atom   29 type  2   force =     0.00000000    0.00000000    0.00000000
     atom   30 type  2   force =     0.00000000    0.00000000    0.00000000
     atom   31 type  1   force =     0.00000000    0.00000000    0.00000000
     atom   32 type  1   force =     0.00000000    0.00000000    0.00000000
     atom   33 type  2   force =     0.00000000    0.00000000    0.00000000
     atom   34 type  2   force =     0.00000000    0.00000000    0.00000000
     atom   35 type  1   force =     0.00000000    0.00000000    0.00000000
     atom   36 type  1   force =     0.00000000    0.00000000    0.00000000
     atom   37 type  1   force =     0.00000000    0.00000000    0.00000000
     atom   38 type  1   force =     0.00000000    0.00000000    0.00000000
     atom   39 type  1   force =     0.00000000    0.00000000    0.00000000
     atom   40 type  1   force =     0.00000000    0.00000000    0.00000000
     atom   41 type  3   force =     0.00000000    0.00000000    0.00000000
     atom   42 type  3   force =     0.00000000    0.00000000    0.00000000
     atom   43 type  3   force =     0.00000000    0.00000000    0.00000000
     atom   44 type  3   force =     0.00000000    0.00000000    0.00000000
     atom   45 type  3   force =     0.00000000    0.00000000    0.00000000
     atom   46 type  3   force =     0.00000000    0.00000000    0.00000000
     atom   47 type  3   force =     0.00000000    0.00000000    0.00000000
     atom   48 type  3   force =     0.00000000    0.00000000    0.00000000
     atom   49 type  3   force =     0.00000000    0.00000000    0.00000000
     atom   50 type  3   force =     0.00000000    0.00000000    0.00000000
     atom   51 type  3   force =     0.00000000    0.00000000    0.00000000
     atom   52 type  3   force =     0.00000000    0.00000000    0.00000000
     The SCF correction term to forces
     atom    1 type  1   force =    -0.00000038    0.00000000    0.00000080
     atom    2 type  1   force =    -0.00000038    0.00000000    0.00000071
     atom    3 type  1   force =    -0.00000004   -0.00000000    0.00000002
     atom    4 type  1   force =    -0.00000018   -0.00000000    0.00000007
     atom    5 type  2   force =    -0.00000002    0.00000000   -0.00000174
     atom    6 type  2   force =    -0.00000046    0.00000000   -0.00000161
     atom    7 type  1   force =    -0.00000007   -0.00000032   -0.00000032
     atom    8 type  1   force =     0.00000008   -0.00000021   -0.00000024
     atom    9 type  2   force =    -0.00000006   -0.00000000    0.00000055
     atom   10 type  2   force =     0.00000005   -0.00000000    0.00000081
     atom   11 type  1   force =    -0.00000007    0.00000032   -0.00000032
     atom   12 type  1   force =     0.00000008    0.00000021   -0.00000024
     atom   13 type  1   force =     0.00000010    0.00000000   -0.00000161
     atom   14 type  1   force =     0.00000006    0.00000000   -0.00000070
     atom   15 type  1   force =    -0.00000029   -0.00000000   -0.00000014
     atom   16 type  1   force =     0.00000039   -0.00000000    0.00000015
     atom   17 type  2   force =    -0.00000011   -0.00000000    0.00000005
     atom   18 type  2   force =     0.00000028   -0.00000000    0.00000005
     atom   19 type  1   force =     0.00000095    0.00000048    0.00000002
     atom   20 type  1   force =    -0.00000074    0.00000091    0.00000002
     atom   21 type  2   force =     0.00000058   -0.00000000    0.00000004
     atom   22 type  2   force =    -0.00000053   -0.00000000    0.00000004
     atom   23 type  1   force =     0.00000095   -0.00000048    0.00000002
     atom   24 type  1   force =    -0.00000074   -0.00000091    0.00000002
     atom   25 type  1   force =    -0.00000029   -0.00000000    0.00000017
     atom   26 type  1   force =     0.00000039   -0.00000000   -0.00000013
     atom   27 type  1   force =     0.00000010    0.00000000    0.00000163
     atom   28 type  1   force =     0.00000006    0.00000000    0.00000071
     atom   29 type  2   force =    -0.00000002    0.00000000    0.00000175
     atom   30 type  2   force =    -0.00000046    0.00000000    0.00000162
     atom   31 type  1   force =    -0.00000007   -0.00000032    0.00000032
     atom   32 type  1   force =     0.00000008   -0.00000021    0.00000024
     atom   33 type  2   force =    -0.00000006   -0.00000000   -0.00000055
     atom   34 type  2   force =     0.00000005   -0.00000000   -0.00000081
     atom   35 type  1   force =    -0.00000007    0.00000032    0.00000032
     atom   36 type  1   force =     0.00000008    0.00000021    0.00000024
     atom   37 type  1   force =    -0.00000004    0.00000000   -0.00000003
     atom   38 type  1   force =    -0.00000018    0.00000000   -0.00000008
     atom   39 type  1   force =    -0.00000038   -0.00000000   -0.00000081
     atom   40 type  1   force =    -0.00000038   -0.00000000   -0.00000072
     atom   41 type  3   force =     0.00000005    0.00000000    0.00000007
     atom   42 type  3   force =     0.00000005   -0.00000000   -0.00000007
     atom   43 type  3   force =     0.00000007    0.00000000    0.00000006
     atom   44 type  3   force =     0.00000007   -0.00000000   -0.00000007
     atom   45 type  3   force =    -0.00000000   -0.00000015    0.00000009
     atom   46 type  3   force =    -0.00000000   -0.00000015   -0.00000009
     atom   47 type  3   force =    -0.00000001   -0.00000015    0.00000009
     atom   48 type  3   force =    -0.00000001   -0.00000015   -0.00000009
     atom   49 type  3   force =    -0.00000000    0.00000015    0.00000009
     atom   50 type  3   force =    -0.00000000    0.00000015   -0.00000009
     atom   51 type  3   force =    -0.00000001    0.00000015    0.00000009
     atom   52 type  3   force =    -0.00000001    0.00000015   -0.00000009

     Total force =     0.000429     Total SCF correction =     0.000006
     Energy error            =      6.7E-07 Ry
     Gradient error          =      9.2E-05 Ry/Bohr

     bfgs converged in  23 scf cycles and  22 bfgs steps
     (criteria: energy <  1.0E-04 Ry, force <  1.0E-04 Ry/Bohr)

     End of BFGS Geometry Optimization

     Final energy             =   -3442.5735093595 Ry

     File /storage/home/mgm6007/ixd4/Maria/Strain2_Files/RuO2-110-0-012345/RuO2-110-0-012345.bfgs deleted, as requested
Begin final coordinates

ATOMIC_POSITIONS (crystal)
O             0.0015575508        0.5000000000        0.2612883614
O             0.5015572623        0.5000000000        0.2612883810
O            -0.0039542435        0.0000000000        0.2880495460
O             0.4960457368        0.0000000000        0.2880495457
Ru            0.2468882339        0.0000000000        0.3596909594
Ru            0.7468882280        0.0000000000        0.3596909633
O             0.2493050535        0.3109467106        0.3542909233
O             0.7493050451        0.3109467112        0.3542909215
Ru           -0.0007763182        0.5000000000        0.3556650578
Ru            0.4992236884        0.5000000000        0.3556650620
O             0.2493050535        0.6890532894        0.3542909233
O             0.7493050451        0.6890532888        0.3542909215
O            -0.0027871644        0.0000000000        0.4121671054
O             0.4972128481        0.0000000000        0.4121670938
O            -0.0022287211        0.5000000000        0.4444885304
O             0.4977713172        0.5000000000        0.4444885328
Ru           -0.0029603901        0.0000000000        0.5000010000
Ru            0.4970396105        0.0000000000        0.5000010000
O             0.2469122317        0.1886070403        0.5000010000
O             0.7469122435        0.1886070562        0.5000010000
Ru            0.2480807529        0.5000000000        0.5000010000
Ru            0.7480807611        0.5000000000        0.5000010000
O             0.2469122317        0.8113939597        0.5000010000
O             0.7469122435        0.8113939438        0.5000010000
O            -0.0022287211        0.5000000000        0.5555124696
O             0.4977713172        0.5000000000        0.5555124672
O            -0.0027871644        0.0000000000        0.5878338946
O             0.4972128481        0.0000000000        0.5878339062
Ru            0.2468882339        0.0000000000        0.6403100406
Ru            0.7468882280        0.0000000000        0.6403100367
O             0.2493050535        0.3109467106        0.6457100767
O             0.7493050451        0.3109467112        0.6457100785
Ru           -0.0007763182        0.5000000000        0.6443359422
Ru            0.4992236884        0.5000000000        0.6443359380
O             0.2493050535        0.6890532894        0.6457100767
O             0.7493050451        0.6890532888        0.6457100785
O            -0.0039542435        0.0000000000        0.7119524540
O             0.4960457368        0.0000000000        0.7119524543
O             0.0015575508        0.5000000000        0.7387126386
O             0.5015572623        0.5000000000        0.7387126190
H             0.1486657712        0.5000000000        0.2513211240
H             0.1486657712        0.5000000000        0.7486788760
H             0.6486658554        0.5000000000        0.2513211132
H             0.6486658554        0.5000000000        0.7486788868
H            -0.0064062552        0.1358616646        0.2632883548
H            -0.0064062552        0.1358616646        0.7367116452
H             0.4935937129        0.1358616623        0.2632883537
H             0.4935937129        0.1358616623        0.7367116463
H            -0.0064062552        0.8641383354        0.2632883548
H            -0.0064062552        0.8641383354        0.7367116452
H             0.4935937129        0.8641383377        0.2632883537
H             0.4935937129        0.8641383377        0.7367116463
End final coordinates



     Writing all to output data dir /storage/home/mgm6007/ixd4/Maria/Strain2_Files/RuO2-110-0-012345/RuO2-110-0-012345.save/
 
     init_run     :    307.56s CPU    767.71s WALL (       1 calls)
     electrons    :  22451.03s CPU 115481.91s WALL (      23 calls)
     update_pot   :     37.79s CPU     37.82s WALL (      22 calls)
     forces       :     36.22s CPU     36.61s WALL (      23 calls)

     Called by init_run:
     wfcinit      :      0.50s CPU      0.52s WALL (       1 calls)
     potinit      :    178.60s CPU    462.02s WALL (       1 calls)
     hinit0       :    127.99s CPU    304.59s WALL (       1 calls)

     Called by electrons:
     c_bands      :    472.59s CPU    478.82s WALL (     380 calls)
     sum_band     :    104.70s CPU    104.86s WALL (     380 calls)
     v_of_rho     :     47.23s CPU     47.36s WALL (     381 calls)
     newd         :     27.45s CPU     27.48s WALL (     381 calls)
     PAW_pot      :     46.47s CPU     46.49s WALL (     403 calls)
     mix_rho      :    234.56s CPU    234.85s WALL (     380 calls)

     Called by c_bands:
     init_us_2    :      4.94s CPU      4.95s WALL (     783 calls)
     init_us_2:cp :      4.94s CPU      4.95s WALL (     783 calls)
     cegterg      :    454.63s CPU    455.18s WALL (     380 calls)

     Called by *egterg:
     cdiaghg      :     59.04s CPU     59.10s WALL (    1136 calls)
     h_psi        :    235.89s CPU    236.15s WALL (    1181 calls)
     s_psi        :     36.94s CPU     37.04s WALL (    1181 calls)
     g_psi        :      1.19s CPU      1.20s WALL (     800 calls)

     Called by h_psi:
     h_psi:calbec :     36.57s CPU     36.58s WALL (    1181 calls)
     vloc_psi     :    159.00s CPU    159.21s WALL (    1181 calls)
     add_vuspsi   :     37.30s CPU     37.33s WALL (    1181 calls)

     General routines
     calbec       :     58.28s CPU     58.33s WALL (    1675 calls)
     fft          :   5322.64s CPU   5323.91s WALL (    5204 calls)
     ffts         :     84.67s CPU     84.76s WALL (  132414 calls)
     fftw         :    143.73s CPU    143.87s WALL (  445804 calls)
     interpolate  :   5291.64s CPU   5292.91s WALL (     381 calls)
 
     Parallel routines
 
     Environ routines
 
     PWSCF        :      6h45m CPU   1d10h19m WALL

 
   This run was terminated on:   0:45:21  25Jul2023            

=------------------------------------------------------------------------------=
   JOB DONE.
=------------------------------------------------------------------------------=
