
     Program PWSCF v.7.2 starts on 18Jul2023 at 16:11: 2 
        Git branch: heads/qe-7.2
        Last git commit: b4c5e8deeb7d1863e7553a87b45f8d22c21926a5
        Last git commit date: Mon Mar 27 16:12:09 2023 +0000
        Last git commit subject: Merge branch 'merge_fix_hubbard' into 'develop'

     This program is part of the open-source Quantum ESPRESSO suite
     for quantum simulation of materials; please cite
         "P. Giannozzi et al., J. Phys.:Condens. Matter 21 395502 (2009);
         "P. Giannozzi et al., J. Phys.:Condens. Matter 29 465901 (2017);
         "P. Giannozzi et al., J. Chem. Phys. 152 154105 (2020);
          URL http://www.quantum-espresso.org", 
     in publications or presentations arising from this work. More details at
     http://www.quantum-espresso.org/quote

     Parallel version (MPI), running on    20 processors

     MPI processes distributed on     1 nodes
     93301 MiB available memory on the printing compute node when the environment starts
 
     Reading input from RuO2-110-0-234.in

     Current dimensions of program PWSCF are:
     Max number of different atomic species (ntypx) = 10
     Max number of k-points (npk) =  40000
     Max angular momentum in pseudopotentials (lmaxx) =  4
 
     Reading input from environ.in:
     * Environ restarting
     * setting up water environment
     * using electronic solvent mode
     * setting boundary derivatives method to SCCS default
     

     File /storage/home/mgm6007/ixd4/Maria/Strain1_Files/RuO2-110-0-234/RuO2-110-0-234.update deleted, as requested

     File /storage/home/mgm6007/ixd4/Maria/Strain1_Files/RuO2-110-0-234/RuO2-110-0-234.bfgs deleted, as requested
     file O.pbe-n-kjpaw_psl.0.1.UPF: wavefunction(s)  2P renormalized
     Message from routine setup:
     using ibrav=0 with symmetry is DISCOURAGED, use correct ibrav instead
 
     R & G space division:  proc/nbgrp/npool/nimage =      20
     Subspace diagonalization in iterative solution of the eigenvalue problem:
     one sub-group per band group will be used
     scalapack distributed-memory algorithm (size of sub-group:  2*  2 procs)

 
     Parallelization info
     --------------------
     sticks:   dense  smooth     PW     G-vecs:    dense   smooth      PW
     Min         276     110     29                54830    13868    1873
     Max         277     111     30                54841    13883    1882
     Sum        5527    2209    585              1096679   277485   37533
 
     Using Slab Decomposition
 


     bravais-lattice index     =            0
     lattice parameter (alat)  =      12.3893  a.u.
     unit-cell volume          =    5808.5831 (a.u.)^3
     number of atoms/cell      =           46
     number of atomic types    =            3
     number of electrons       =       366.00
     number of Kohn-Sham states=          220
     kinetic-energy cutoff     =      50.0000  Ry
     charge density cutoff     =     500.0000  Ry
     scf convergence threshold =      1.0E-09
     mixing beta               =       0.7000
     number of iterations used =            8  local-TF  mixing
     energy convergence thresh.=      1.0E-04
     force convergence thresh. =      1.0E-04
     Exchange-correlation= PBE
                           (   1   4   3   4   0   0   0)
     nstep                     =          200


     ================================================================================
 
                                  Environ Setup Summary

     ================================================================================
 
     Please cite

          O. Andreussi, I. Dabo and N. Marzari, J. Chem. Phys. 136, 064102 (2012)

     in publications or presentations arising from this work.

     ================================================================================
 
     Parameters
     ==========

     compensation onset threshold      =               0.1000E+00
     static permittivity               =                    78.30
     surface tension in input (dyn/cm) =                    47.90
     surface tension in internal units =               0.6153E-04
     external pressure in input (GPa)  =                    -0.36
     external pressure in inter. units =              -0.2447E-04

     Solvent Boundary
     ================

     solvent mode                      =               electronic
     derivatives method                =                    chain
     numerical core for derivatives    =                      fft
     switching function adopted        =                     SCCS
     density limit for vacuum region   =               0.5000E-02
     density limit for bulk solvent    =               0.1000E-03

     Electrostatic Setup
     ===================

     electrostatic problem to solve    =              generalized
     numerical solver adopted          =                       cg
     type of auxiliary density adopted =                     none
     numerical core for poisson        =                      fft
     type of pbc corrections           =                parabolic
     numerical core for corrections    =                      1da

     ================================================================================
 

     celldm(1)=  12.389316  celldm(2)=   0.000000  celldm(3)=   0.000000
     celldm(4)=   0.000000  celldm(5)=   0.000000  celldm(6)=   0.000000

     crystal axes: (cart. coord. in units of alat)
               a(1) = (   1.000000   0.000000   0.000000 )  
               a(2) = (   0.000000   0.904766   0.000000 )  
               a(3) = (   0.000000   0.000000   3.375918 )  

     reciprocal axes: (cart. coord. in units 2 pi/alat)
               b(1) = (  1.000000  0.000000  0.000000 )  
               b(2) = (  0.000000  1.105258  0.000000 )  
               b(3) = (  0.000000  0.000000  0.296216 )  


     PseudoPot. # 1 for O  read from file:
     /gpfs/group/ixd4/default/Simon/pseudopotentials/materialscloud/SSSP_1.3.0_PBE_efficiency/O.pbe-n-kjpaw_psl.0.1.UPF
     MD5 check sum: 0234752ac141de4415c5fc33072bef88
     Pseudo is Projector augmented-wave + core cor, Zval =  6.0
     Generated using "atomic" code by A. Dal Corso  v.5.0.99 svn rev. 10869
     Shape of augmentation charge: BESSEL
     Using radial grid of 1095 points,  4 beta functions with: 
                l(1) =   0
                l(2) =   0
                l(3) =   1
                l(4) =   1
     Q(r) pseudized with 0 coefficients 


     PseudoPot. # 2 for Ru read from file:
     /gpfs/group/ixd4/default/Simon/pseudopotentials/materialscloud/SSSP_1.3.0_PBE_efficiency/Ru_ONCV_PBE-1.0.oncvpsp.upf
     MD5 check sum: be037bb81c227cfb9b1461a9f099f4bd
     Pseudo is Norm-conserving, Zval = 16.0
     Generated using ONCVPSP code by D. R. Hamann
     Using radial grid of 1458 points,  6 beta functions with: 
                l(1) =   0
                l(2) =   0
                l(3) =   1
                l(4) =   1
                l(5) =   2
                l(6) =   2

     PseudoPot. # 3 for H  read from file:
     /gpfs/group/ixd4/default/Simon/pseudopotentials/materialscloud/SSSP_1.3.0_PBE_efficiency/H.pbe-rrkjus_psl.1.0.0.UPF
     MD5 check sum: f52b6d4d1c606e5624b1dc7b2218f220
     Pseudo is Ultrasoft, Zval =  1.0
     Generated using "atomic" code by A. Dal Corso  v.5.1
     Using radial grid of  929 points,  2 beta functions with: 
                l(1) =   0
                l(2) =   0
     Q(r) pseudized with 0 coefficients 


     atomic species   valence    mass     pseudopotential
        O              6.00    15.99940     O ( 1.00)
        Ru            16.00   101.07000     Ru( 1.00)
        H              1.00     1.00794     H ( 1.00)

      4 Sym. Ops. (no inversion) found



   Cartesian axes

     site n.     atom                  positions (alat units)
         1           O   tau(   1) = (   0.0000000   0.3692281   0.9228816  )
         2           O   tau(   2) = (   0.5000000   0.4467225   0.9231699  )
         3           O   tau(   3) = (   0.0000000  -0.0004632   1.0033729  )
         4           O   tau(   4) = (   0.5000000  -0.0094623   1.0170387  )
         5           Ru  tau(   5) = (   0.2504655  -0.0058333   1.2056093  )
         6           Ru  tau(   6) = (   0.7495345  -0.0058333   1.2056093  )
         7           O   tau(   7) = (   0.2562611   0.2769124   1.2296294  )
         8           O   tau(   8) = (   0.7437389   0.2769124   1.2296294  )
         9           Ru  tau(   9) = (   0.0000000   0.4435090   1.2074067  )
        10           Ru  tau(  10) = (   0.5000000   0.4457967   1.1878857  )
        11           O   tau(  11) = (   0.2366499   0.6178566   1.1972620  )
        12           O   tau(  12) = (   0.7633501   0.6178566   1.1972620  )
        13           O   tau(  13) = (   0.0000000  -0.0031768   1.3905608  )
        14           O   tau(  14) = (   0.5000000  -0.0088143   1.3846214  )
        15           O   tau(  15) = (   0.0000000   0.4591358   1.5111967  )
        16           O   tau(  16) = (   0.5000000   0.4662212   1.4976755  )
        17           Ru  tau(  17) = (   0.0000000   0.0092559   1.6879622  )
        18           Ru  tau(  18) = (   0.5000000   0.0056641   1.6879622  )
        19           O   tau(  19) = (   0.2540425   0.1758543   1.6879622  )
        20           O   tau(  20) = (   0.7459575   0.1758543   1.6879622  )
        21           Ru  tau(  21) = (   0.2524284   0.4605496   1.6879622  )
        22           Ru  tau(  22) = (   0.7475716   0.4605496   1.6879622  )
        23           O   tau(  23) = (   0.2489998   0.7446592   1.6879622  )
        24           O   tau(  24) = (   0.7510002   0.7446592   1.6879622  )
        25           O   tau(  25) = (   0.0000000   0.4591358   1.8647242  )
        26           O   tau(  26) = (   0.5000000   0.4662212   1.8782454  )
        27           O   tau(  27) = (   0.0000000  -0.0031768   1.9853601  )
        28           O   tau(  28) = (   0.5000000  -0.0088143   1.9912995  )
        29           Ru  tau(  29) = (   0.2504655  -0.0058333   2.1703117  )
        30           Ru  tau(  30) = (   0.7495345  -0.0058333   2.1703117  )
        31           O   tau(  31) = (   0.2562611   0.2769124   2.1462915  )
        32           O   tau(  32) = (   0.7437389   0.2769124   2.1462915  )
        33           Ru  tau(  33) = (   0.0000000   0.4435090   2.1685143  )
        34           Ru  tau(  34) = (   0.5000000   0.4457967   2.1880353  )
        35           O   tau(  35) = (   0.2366499   0.6178566   2.1786589  )
        36           O   tau(  36) = (   0.7633501   0.6178566   2.1786589  )
        37           O   tau(  37) = (   0.0000000  -0.0004632   2.3725515  )
        38           O   tau(  38) = (   0.5000000  -0.0094623   2.3588856  )
        39           O   tau(  39) = (   0.0000000   0.3692281   2.4530394  )
        40           O   tau(  40) = (   0.5000000   0.4467225   2.4527510  )
        41           H   tau(  41) = (   0.0000000   0.2177729   0.9317153  )
        42           H   tau(  42) = (   0.0000000   0.2177729   2.4442022  )
        43           H   tau(  43) = (   0.5000000   0.0694876   0.8858244  )
        44           H   tau(  44) = (   0.5000000   0.0694876   2.4900932  )
        45           H   tau(  45) = (   0.0000000   0.8267352   0.8761103  )
        46           H   tau(  46) = (   0.0000000   0.8267352   2.4998073  )

     number of k points=     1  Marzari-Vanderbilt smearing, width (Ry)=  0.0300
                       cart. coord. in units 2pi/alat
        k(    1) = (   0.2500000   0.2763144   0.0000000), wk =   2.0000000

     Dense  grid:  1096679 G-vectors     FFT dimensions: (  90,  80, 300)

     Smooth grid:   277485 G-vectors     FFT dimensions: (  60,  54, 192)

     Estimated max dynamical RAM per process >     168.15 MB

     Estimated total dynamical RAM >       3.28 GB

     Check: negative core charge=   -0.000001

     Initial potential from superposition of free atoms

     starting charge     365.9933, renormalised to     366.0000

     add environment contribution to local potential
     Polarization accuracy = 4.8E-12, # of iterations =  23

     negative rho (up, down):  3.154E-05 0.000E+00
     Starting wfcs are  238 randomized atomic wfcs
     Checking if some PAW data can be deallocated... 

     total cpu time spent up to now is     2016.0 secs

     per-process dynamical memory:   137.5 Mb

     Self-consistent Calculation

     iteration #  1     ecut=    50.00 Ry     beta= 0.70
     Davidson diagonalization with overlap
     ethr =  1.00E-02,  avg # of iterations =  2.0

     negative rho (up, down):  1.260E-08 0.000E+00

     total cpu time spent up to now is     2577.2 secs

     total energy              =   -3432.65434586 Ry
     estimated scf accuracy    <       9.82645118 Ry
     electrostatic embedding   =      -0.00172810 Ry
     cavitation energy         =       0.01935987 Ry
     PV energy                 =      -0.08403105 Ry
     correction to one-el term =     221.59515301 Ry

     iteration #  2     ecut=    50.00 Ry     beta= 0.70
     Davidson diagonalization with overlap
     ethr =  2.68E-03,  avg # of iterations =  2.0

     total cpu time spent up to now is     3135.2 secs

     total energy              =   -3434.77735935 Ry
     estimated scf accuracy    <       2.48689369 Ry
     electrostatic embedding   =      -0.00273147 Ry
     cavitation energy         =       0.01935871 Ry
     PV energy                 =      -0.08459950 Ry
     correction to one-el term =     221.59801060 Ry

     iteration #  3     ecut=    50.00 Ry     beta= 0.70
     Davidson diagonalization with overlap
     ethr =  6.79E-04,  avg # of iterations =  1.0

     total cpu time spent up to now is     3781.7 secs

     total energy              =   -3434.98754690 Ry
     estimated scf accuracy    <       0.42020650 Ry
     electrostatic embedding   =      -0.00319288 Ry
     cavitation energy         =       0.01936388 Ry
     PV energy                 =      -0.08487759 Ry
     correction to one-el term =     221.59931458 Ry

     iteration #  4     ecut=    50.00 Ry     beta= 0.70
     Davidson diagonalization with overlap
     ethr =  1.15E-04,  avg # of iterations =  2.0

     total cpu time spent up to now is     4327.0 secs

     total energy              =   -3435.02358369 Ry
     estimated scf accuracy    <       0.57226314 Ry
     electrostatic embedding   =      -0.00335704 Ry
     cavitation energy         =       0.01958008 Ry
     PV energy                 =      -0.08439119 Ry
     correction to one-el term =     221.59937425 Ry

     iteration #  5     ecut=    50.00 Ry     beta= 0.70
     Davidson diagonalization with overlap
     ethr =  1.15E-04,  avg # of iterations =  1.0

     total cpu time spent up to now is     4987.7 secs

     total energy              =   -3435.01883875 Ry
     estimated scf accuracy    <       0.22938717 Ry
     electrostatic embedding   =      -0.00356128 Ry
     cavitation energy         =       0.01983478 Ry
     PV energy                 =      -0.08387003 Ry
     correction to one-el term =     221.59958965 Ry

     iteration #  6     ecut=    50.00 Ry     beta= 0.70
     Davidson diagonalization with overlap
     ethr =  6.27E-05,  avg # of iterations =  2.0

     total cpu time spent up to now is     5530.8 secs

     total energy              =   -3435.00994221 Ry
     estimated scf accuracy    <       0.16780498 Ry
     electrostatic embedding   =      -0.00368340 Ry
     cavitation energy         =       0.02028261 Ry
     PV energy                 =      -0.08278097 Ry
     correction to one-el term =     221.59939303 Ry

     iteration #  7     ecut=    50.00 Ry     beta= 0.70
     Davidson diagonalization with overlap
     ethr =  4.58E-05,  avg # of iterations = 10.0

     total cpu time spent up to now is     6213.1 secs

     total energy              =   -3435.00566815 Ry
     estimated scf accuracy    <       0.12074132 Ry
     electrostatic embedding   =      -0.00363210 Ry
     cavitation energy         =       0.02065396 Ry
     PV energy                 =      -0.08179575 Ry
     correction to one-el term =     221.59885646 Ry

     iteration #  8     ecut=    50.00 Ry     beta= 0.70
     Davidson diagonalization with overlap
     ethr =  3.30E-05,  avg # of iterations =  1.0

     negative rho (up, down):  1.058E-04 0.000E+00

     add environment contribution to local potential
     Polarization accuracy = 7.2E-12, # of iterations =  47

     total cpu time spent up to now is     6796.0 secs

     total energy              =   -3435.00074511 Ry
     estimated scf accuracy    <       0.04111311 Ry
     electrostatic embedding   =      -0.00342307 Ry
     cavitation energy         =       0.02116093 Ry
     PV energy                 =      -0.08059990 Ry
     correction to one-el term =     221.59778517 Ry

     iteration #  9     ecut=    50.00 Ry     beta= 0.70
     Davidson diagonalization with overlap
     ethr =  1.12E-05,  avg # of iterations = 10.0

     negative rho (up, down):  2.286E-04 0.000E+00

     total cpu time spent up to now is     7612.8 secs

     total energy              =   -3435.06941458 Ry
     estimated scf accuracy    <       0.28531821 Ry
     electrostatic embedding   =      -0.06333182 Ry
     cavitation energy         =       0.02153819 Ry
     PV energy                 =      -0.07981078 Ry
     correction to one-el term =     181.64685482 Ry

     iteration # 10     ecut=    50.00 Ry     beta= 0.70
     Davidson diagonalization with overlap
     ethr =  1.12E-05,  avg # of iterations =  1.0

     negative rho (up, down):  1.614E-05 0.000E+00

     total cpu time spent up to now is     8239.3 secs

     total energy              =   -3435.05395953 Ry
     estimated scf accuracy    <       0.23472339 Ry
     electrostatic embedding   =      -0.06353739 Ry
     cavitation energy         =       0.02154088 Ry
     PV energy                 =      -0.07977439 Ry
     correction to one-el term =     181.64755667 Ry

     iteration # 11     ecut=    50.00 Ry     beta= 0.70
     Davidson diagonalization with overlap
     ethr =  1.12E-05,  avg # of iterations =  2.0

     negative rho (up, down):  3.812E-07 0.000E+00

     add environment contribution to local potential
     Polarization accuracy = 3.8E-12, # of iterations =  44

     total cpu time spent up to now is     9011.6 secs

     total energy              =   -3435.05138527 Ry
     estimated scf accuracy    <       0.03657844 Ry
     electrostatic embedding   =      -0.06508976 Ry
     cavitation energy         =       0.02134274 Ry
     PV energy                 =      -0.07977270 Ry
     correction to one-el term =     181.65217030 Ry

     iteration # 12     ecut=    50.00 Ry     beta= 0.70
     Davidson diagonalization with overlap
     ethr =  9.99E-06,  avg # of iterations =  2.0

     negative rho (up, down):  1.180E-03 0.000E+00

     add environment contribution to local potential
     Polarization accuracy = 9.2E-12, # of iterations =  44

     total cpu time spent up to now is     9538.3 secs

     total energy              =   -3435.05802592 Ry
     estimated scf accuracy    <       0.01237148 Ry
     electrostatic embedding   =      -0.07301310 Ry
     cavitation energy         =       0.02116278 Ry
     PV energy                 =      -0.07985401 Ry
     correction to one-el term =     183.36991809 Ry

     iteration # 13     ecut=    50.00 Ry     beta= 0.70
     Davidson diagonalization with overlap
     ethr =  3.38E-06,  avg # of iterations =  9.0

     negative rho (up, down):  1.349E-03 0.000E+00

     add environment contribution to local potential
     Polarization accuracy = 6.8E-12, # of iterations =  44

     total cpu time spent up to now is    10335.3 secs

     total energy              =   -3435.06102223 Ry
     estimated scf accuracy    <       0.00364176 Ry
     electrostatic embedding   =      -0.08142041 Ry
     cavitation energy         =       0.02104515 Ry
     PV energy                 =      -0.07980388 Ry
     correction to one-el term =     183.93012383 Ry

     iteration # 14     ecut=    50.00 Ry     beta= 0.70
     Davidson diagonalization with overlap
     ethr =  9.95E-07,  avg # of iterations =  6.0

     negative rho (up, down):  7.208E-04 0.000E+00

     add environment contribution to local potential
     Polarization accuracy = 8.7E-12, # of iterations =  43

     total cpu time spent up to now is    10975.3 secs

     total energy              =   -3435.06186843 Ry
     estimated scf accuracy    <       0.00675106 Ry
     electrostatic embedding   =      -0.08565146 Ry
     cavitation energy         =       0.02096766 Ry
     PV energy                 =      -0.07985437 Ry
     correction to one-el term =     184.32471341 Ry

     iteration # 15     ecut=    50.00 Ry     beta= 0.70
     Davidson diagonalization with overlap
     ethr =  9.95E-07,  avg # of iterations =  7.0

     negative rho (up, down):  7.352E-05 0.000E+00

     add environment contribution to local potential
     Polarization accuracy = 7.0E-12, # of iterations =  44

     total cpu time spent up to now is    11600.3 secs

     total energy              =   -3435.06168815 Ry
     estimated scf accuracy    <       0.00864960 Ry
     electrostatic embedding   =      -0.08905347 Ry
     cavitation energy         =       0.02084773 Ry
     PV energy                 =      -0.08001147 Ry
     correction to one-el term =     185.14083379 Ry

     iteration # 16     ecut=    50.00 Ry     beta= 0.70
     Davidson diagonalization with overlap
     ethr =  9.95E-07,  avg # of iterations =  3.0

     add environment contribution to local potential
     Polarization accuracy = 8.4E-12, # of iterations =  43

     total cpu time spent up to now is    12224.3 secs

     total energy              =   -3435.06163975 Ry
     estimated scf accuracy    <       0.00309488 Ry
     electrostatic embedding   =      -0.08773449 Ry
     cavitation energy         =       0.02086318 Ry
     PV energy                 =      -0.08004473 Ry
     correction to one-el term =     185.29811100 Ry

     iteration # 17     ecut=    50.00 Ry     beta= 0.70
     Davidson diagonalization with overlap
     ethr =  8.46E-07,  avg # of iterations =  8.0

     negative rho (up, down):  1.339E-04 0.000E+00

     add environment contribution to local potential
     Polarization accuracy = 4.7E-12, # of iterations =  42

     total cpu time spent up to now is    12771.2 secs

     total energy              =   -3435.06197353 Ry
     estimated scf accuracy    <       0.00015307 Ry
     electrostatic embedding   =      -0.08478903 Ry
     cavitation energy         =       0.02083702 Ry
     PV energy                 =      -0.08016616 Ry
     correction to one-el term =     185.97878382 Ry

     iteration # 18     ecut=    50.00 Ry     beta= 0.70
     Davidson diagonalization with overlap
     ethr =  4.18E-08,  avg # of iterations =  8.0

     negative rho (up, down):  6.157E-05 0.000E+00

     add environment contribution to local potential
     Polarization accuracy = 6.9E-12, # of iterations =  42

     total cpu time spent up to now is    13453.1 secs

     total energy              =   -3435.06204473 Ry
     estimated scf accuracy    <       0.00005157 Ry
     electrostatic embedding   =      -0.08297995 Ry
     cavitation energy         =       0.02082004 Ry
     PV energy                 =      -0.08021109 Ry
     correction to one-el term =     186.40099408 Ry

     iteration # 19     ecut=    50.00 Ry     beta= 0.70
     Davidson diagonalization with overlap
     ethr =  1.41E-08,  avg # of iterations =  2.0

     negative rho (up, down):  2.228E-04 0.000E+00

     add environment contribution to local potential
     Polarization accuracy = 4.4E-12, # of iterations =  42

     total cpu time spent up to now is    13877.2 secs

     total energy              =   -3435.06204905 Ry
     estimated scf accuracy    <       0.00003578 Ry
     electrostatic embedding   =      -0.08314882 Ry
     cavitation energy         =       0.02081796 Ry
     PV energy                 =      -0.08019863 Ry
     correction to one-el term =     186.42742344 Ry

     iteration # 20     ecut=    50.00 Ry     beta= 0.70
     Davidson diagonalization with overlap
     ethr =  9.78E-09,  avg # of iterations =  2.0

     negative rho (up, down):  1.338E-04 0.000E+00

     add environment contribution to local potential
     Polarization accuracy = 4.2E-12, # of iterations =  42

     total cpu time spent up to now is    14023.4 secs

     total energy              =   -3435.06206659 Ry
     estimated scf accuracy    <       0.00000396 Ry
     electrostatic embedding   =      -0.08195131 Ry
     cavitation energy         =       0.02081734 Ry
     PV energy                 =      -0.08019560 Ry
     correction to one-el term =     186.60970360 Ry

     iteration # 21     ecut=    50.00 Ry     beta= 0.70
     Davidson diagonalization with overlap
     ethr =  1.08E-09,  avg # of iterations =  3.0

     negative rho (up, down):  1.446E-04 0.000E+00

     add environment contribution to local potential
     Polarization accuracy = 4.2E-12, # of iterations =  42

     total cpu time spent up to now is    14161.3 secs

     total energy              =   -3435.06206962 Ry
     estimated scf accuracy    <       0.00000058 Ry
     electrostatic embedding   =      -0.08152243 Ry
     cavitation energy         =       0.02081729 Ry
     PV energy                 =      -0.08018904 Ry
     correction to one-el term =     186.66628888 Ry

     iteration # 22     ecut=    50.00 Ry     beta= 0.70
     Davidson diagonalization with overlap
     ethr =  1.57E-10,  avg # of iterations =  3.0

     negative rho (up, down):  9.693E-05 0.000E+00

     add environment contribution to local potential
     Polarization accuracy = 4.1E-12, # of iterations =  42

     total cpu time spent up to now is    14287.7 secs

     total energy              =   -3435.06207057 Ry
     estimated scf accuracy    <       0.00000048 Ry
     electrostatic embedding   =      -0.08138330 Ry
     cavitation energy         =       0.02081628 Ry
     PV energy                 =      -0.08018819 Ry
     correction to one-el term =     186.68818414 Ry

     iteration # 23     ecut=    50.00 Ry     beta= 0.70
     Davidson diagonalization with overlap
     ethr =  1.32E-10,  avg # of iterations =  3.0

     negative rho (up, down):  1.070E-04 0.000E+00

     add environment contribution to local potential
     Polarization accuracy = 3.9E-12, # of iterations =  42

     total cpu time spent up to now is    14436.2 secs

     total energy              =   -3435.06207133 Ry
     estimated scf accuracy    <       0.00000021 Ry
     electrostatic embedding   =      -0.08122881 Ry
     cavitation energy         =       0.02081614 Ry
     PV energy                 =      -0.08018734 Ry
     correction to one-el term =     186.70239748 Ry

     iteration # 24     ecut=    50.00 Ry     beta= 0.70
     Davidson diagonalization with overlap
     ethr =  5.67E-11,  avg # of iterations =  3.0

     negative rho (up, down):  1.445E-04 0.000E+00

     add environment contribution to local potential
     Polarization accuracy = 3.9E-12, # of iterations =  42

     total cpu time spent up to now is    14560.1 secs

     total energy              =   -3435.06207221 Ry
     estimated scf accuracy    <       0.00000011 Ry
     electrostatic embedding   =      -0.08105709 Ry
     cavitation energy         =       0.02081505 Ry
     PV energy                 =      -0.08018830 Ry
     correction to one-el term =     186.72541427 Ry

     iteration # 25     ecut=    50.00 Ry     beta= 0.70
     Davidson diagonalization with overlap
     ethr =  2.93E-11,  avg # of iterations =  2.0

     negative rho (up, down):  1.414E-04 0.000E+00

     add environment contribution to local potential
     Polarization accuracy = 3.9E-12, # of iterations =  42

     total cpu time spent up to now is    14690.6 secs

     total energy              =   -3435.06207267 Ry
     estimated scf accuracy    <       0.00000008 Ry
     electrostatic embedding   =      -0.08101613 Ry
     cavitation energy         =       0.02081474 Ry
     PV energy                 =      -0.08018991 Ry
     correction to one-el term =     186.73375994 Ry

     iteration # 26     ecut=    50.00 Ry     beta= 0.70
     Davidson diagonalization with overlap
     ethr =  2.08E-11,  avg # of iterations =  2.0

     negative rho (up, down):  1.439E-04 0.000E+00

     add environment contribution to local potential
     Polarization accuracy = 3.9E-12, # of iterations =  42

     total cpu time spent up to now is    14825.7 secs

     total energy              =   -3435.06207292 Ry
     estimated scf accuracy    <       0.00000007 Ry
     electrostatic embedding   =      -0.08100451 Ry
     cavitation energy         =       0.02081487 Ry
     PV energy                 =      -0.08019015 Ry
     correction to one-el term =     186.73451906 Ry

     iteration # 27     ecut=    50.00 Ry     beta= 0.70
     Davidson diagonalization with overlap
     ethr =  1.99E-11,  avg # of iterations =  2.0

     negative rho (up, down):  1.408E-04 0.000E+00

     add environment contribution to local potential
     Polarization accuracy = 3.8E-12, # of iterations =  42

     total cpu time spent up to now is    14972.1 secs

     total energy              =   -3435.06207319 Ry
     estimated scf accuracy    <       0.00000007 Ry
     electrostatic embedding   =      -0.08100193 Ry
     cavitation energy         =       0.02081493 Ry
     PV energy                 =      -0.08019053 Ry
     correction to one-el term =     186.73482380 Ry

     iteration # 28     ecut=    50.00 Ry     beta= 0.70
     Davidson diagonalization with overlap
     ethr =  1.86E-11,  avg # of iterations =  2.0

     negative rho (up, down):  1.308E-04 0.000E+00

     add environment contribution to local potential
     Polarization accuracy = 3.8E-12, # of iterations =  42

     total cpu time spent up to now is    15104.5 secs

     total energy              =   -3435.06207378 Ry
     estimated scf accuracy    <       0.00000006 Ry
     electrostatic embedding   =      -0.08098443 Ry
     cavitation energy         =       0.02081508 Ry
     PV energy                 =      -0.08019076 Ry
     correction to one-el term =     186.73660442 Ry

     iteration # 29     ecut=    50.00 Ry     beta= 0.70
     Davidson diagonalization with overlap
     ethr =  1.77E-11,  avg # of iterations =  2.0

     negative rho (up, down):  1.341E-04 0.000E+00

     add environment contribution to local potential
     Polarization accuracy = 3.8E-12, # of iterations =  42

     total cpu time spent up to now is    15242.7 secs

     total energy              =   -3435.06207491 Ry
     estimated scf accuracy    <       0.00000006 Ry
     electrostatic embedding   =      -0.08097766 Ry
     cavitation energy         =       0.02081538 Ry
     PV energy                 =      -0.08019060 Ry
     correction to one-el term =     186.73654202 Ry

     iteration # 30     ecut=    50.00 Ry     beta= 0.70
     Davidson diagonalization with overlap
     ethr =  1.57E-11,  avg # of iterations =  2.0

     negative rho (up, down):  1.201E-04 0.000E+00

     add environment contribution to local potential
     Polarization accuracy = 3.8E-12, # of iterations =  42

     total cpu time spent up to now is    15380.9 secs

     total energy              =   -3435.06207542 Ry
     estimated scf accuracy    <       0.00000006 Ry
     electrostatic embedding   =      -0.08099419 Ry
     cavitation energy         =       0.02081524 Ry
     PV energy                 =      -0.08019049 Ry
     correction to one-el term =     186.73494999 Ry

     iteration # 31     ecut=    50.00 Ry     beta= 0.70
     Davidson diagonalization with overlap
     ethr =  1.56E-11,  avg # of iterations =  2.0

     negative rho (up, down):  1.312E-04 0.000E+00

     add environment contribution to local potential
     Polarization accuracy = 3.8E-12, # of iterations =  42

     total cpu time spent up to now is    15528.6 secs

     total energy              =   -3435.06207854 Ry
     estimated scf accuracy    <       0.00000004 Ry
     electrostatic embedding   =      -0.08097944 Ry
     cavitation energy         =       0.02081543 Ry
     PV energy                 =      -0.08018994 Ry
     correction to one-el term =     186.73573444 Ry

     iteration # 32     ecut=    50.00 Ry     beta= 0.70
     Davidson diagonalization with overlap
     ethr =  1.03E-11,  avg # of iterations =  5.0

     negative rho (up, down):  1.366E-04 0.000E+00

     add environment contribution to local potential
     Polarization accuracy = 3.9E-12, # of iterations =  42

     total cpu time spent up to now is    15674.3 secs

     total energy              =   -3435.06208353 Ry
     estimated scf accuracy    <       0.00000003 Ry
     electrostatic embedding   =      -0.08096568 Ry
     cavitation energy         =       0.02081510 Ry
     PV energy                 =      -0.08019001 Ry
     correction to one-el term =     186.73851443 Ry

     iteration # 33     ecut=    50.00 Ry     beta= 0.70
     Davidson diagonalization with overlap
     ethr =  7.14E-12,  avg # of iterations =  2.0

     negative rho (up, down):  1.446E-04 0.000E+00

     add environment contribution to local potential
     Polarization accuracy = 4.0E-12, # of iterations =  42

     total cpu time spent up to now is    15820.4 secs

     total energy              =   -3435.06208686 Ry
     estimated scf accuracy    <       0.00000001 Ry
     electrostatic embedding   =      -0.08098446 Ry
     cavitation energy         =       0.02081496 Ry
     PV energy                 =      -0.08018989 Ry
     correction to one-el term =     186.73646279 Ry

     iteration # 34     ecut=    50.00 Ry     beta= 0.70
     Davidson diagonalization with overlap
     ethr =  4.07E-12,  avg # of iterations =  3.0

     negative rho (up, down):  1.460E-04 0.000E+00

     add environment contribution to local potential
     Polarization accuracy = 4.0E-12, # of iterations =  42

     total cpu time spent up to now is    15969.2 secs

     total energy              =   -3435.06208937 Ry
     estimated scf accuracy    <          8.4E-09 Ry
     electrostatic embedding   =      -0.08098118 Ry
     cavitation energy         =       0.02081486 Ry
     PV energy                 =      -0.08019027 Ry
     correction to one-el term =     186.73717947 Ry

     iteration # 35     ecut=    50.00 Ry     beta= 0.70
     Davidson diagonalization with overlap
     ethr =  2.30E-12,  avg # of iterations =  2.0

     negative rho (up, down):  1.452E-04 0.000E+00

     add environment contribution to local potential
     Polarization accuracy = 4.1E-12, # of iterations =  42

     total cpu time spent up to now is    16099.5 secs

     total energy              =   -3435.06209077 Ry
     estimated scf accuracy    <          4.5E-09 Ry
     electrostatic embedding   =      -0.08098027 Ry
     cavitation energy         =       0.02081493 Ry
     PV energy                 =      -0.08019053 Ry
     correction to one-el term =     186.73729651 Ry

     iteration # 36     ecut=    50.00 Ry     beta= 0.70
     Davidson diagonalization with overlap
     ethr =  1.24E-12,  avg # of iterations =  5.0

     negative rho (up, down):  1.420E-04 0.000E+00

     add environment contribution to local potential
     Polarization accuracy = 4.1E-12, # of iterations =  42

     total cpu time spent up to now is    16235.7 secs

     total energy              =   -3435.06209174 Ry
     estimated scf accuracy    <          1.5E-09 Ry
     electrostatic embedding   =      -0.08098691 Ry
     cavitation energy         =       0.02081498 Ry
     PV energy                 =      -0.08019059 Ry
     correction to one-el term =     186.73644373 Ry

     iteration # 37     ecut=    50.00 Ry     beta= 0.70
     Davidson diagonalization with overlap
     ethr =  4.05E-13,  avg # of iterations =  3.0

     negative rho (up, down):  1.389E-04 0.000E+00

     the potential shift due to the Gaussian-smeared nuclei is    -1.3466 ev

     total cpu time spent up to now is    16361.5 secs

     End of self-consistent calculation

          k = 0.2500 0.2763 0.0000 ( 34692 PWs)   bands (ev):

   -77.8228 -77.8108 -77.2229 -77.2111 -77.0140 -77.0106 -77.0045 -77.0025
   -77.0008 -76.9990 -76.9791 -76.9674 -48.3043 -48.2923 -47.7788 -47.7668
   -47.4621 -47.4504 -47.4341 -47.4225 -47.4055 -47.4027 -47.3937 -47.3909
   -47.3727 -47.3642 -47.3610 -47.3606 -47.1350 -47.0969 -47.0823 -46.9836
   -46.9496 -46.9309 -46.9193 -46.9066 -46.8950 -46.8730 -46.8494 -46.8379
   -46.8289 -46.8076 -46.8050 -46.7993 -46.7930 -46.7879 -46.7877 -46.7763
   -23.8797 -23.8361 -23.5941 -23.5153 -23.4539 -23.2651 -23.2427 -23.1437
   -23.1148 -23.0059 -22.6431 -22.5141 -22.4933 -22.4088 -22.3863 -22.3498
   -22.3050 -22.2300 -22.1789 -22.1525 -22.0933 -22.0487 -21.9952 -21.9720
   -21.9358 -21.7386 -21.4522 -21.3187 -11.9327 -11.8604 -11.8294 -11.7336
   -11.7168 -11.4769 -11.3959 -11.2550 -11.2180 -11.1192 -11.0418 -10.9427
   -10.8843 -10.8342 -10.8101 -10.7193 -10.6594 -10.5719 -10.3740 -10.3532
   -10.2492 -10.2404 -10.2039 -10.0631 -10.0113  -9.9687  -9.8273  -9.7602
    -9.6539  -9.5962  -9.4956  -9.2153  -9.1965  -9.1001  -9.0611  -9.0024
    -8.9295  -8.9078  -8.8338  -8.7599  -8.6732  -8.5761  -8.5740  -8.4482
    -8.3735  -8.3145  -8.2957  -8.0357  -7.9871  -7.9024  -7.8856  -7.8177
    -7.7986  -7.7409  -7.6968  -7.6802  -7.6522  -7.5758  -7.5567  -7.3703
    -7.3675  -7.3070  -7.2534  -7.2252  -7.1421  -7.0483  -7.0184  -6.8185
    -6.7820  -6.6944  -6.6442  -6.6035  -6.5194  -6.5097  -6.3914  -6.1985
    -6.1900  -6.1833  -6.1372  -6.0647  -5.9584  -5.7912  -5.6393  -5.6127
    -4.8125  -4.7630  -4.5799  -4.5062  -4.4741  -4.4662  -4.3347  -4.3227
    -4.2949  -4.2736  -4.2477  -4.2323  -4.1628  -4.1535  -4.1184  -4.0912
    -4.0039  -3.9596  -3.9200  -3.8489  -3.7687  -3.7591  -3.5299  -3.4741
    -3.4286  -3.3481  -3.2435  -3.1851  -2.8805  -2.8437  -2.8408  -2.7112
    -2.6316  -2.6166  -2.3772  -2.3420  -1.8127  -1.5696  -1.5504  -1.4052
    -1.3862  -1.1875  -0.8322  -0.5283  -0.2436  -0.1653   0.0743   0.1011
     0.2240   0.2520   0.3381   0.5257   0.5961   0.7772   0.7941   1.0269
     1.1285   1.1946   1.2659   1.3120

     the Fermi energy is    -3.5891 ev

!    total energy              =   -3435.06209243 Ry
     estimated scf accuracy    <          9.5E-10 Ry
     smearing contrib. (-TS)   =       0.06877543 Ry
     internal energy E=F+TS    =   -3435.13086787 Ry

     The total energy is F=E-TS. E is the sum of the following terms:
     one-electron contribution =  -25741.39566378 Ry
     hartree contribution      =   12858.70450285 Ry
     xc contribution           =    -448.25912256 Ry
     ewald contribution        =    9975.73819107 Ry
     one-center paw contrib.   =    -266.51420532 Ry
     electrostatic embedding   =      -0.08099070 Ry
     cavitation energy         =       0.02081506 Ry
     PV energy                 =      -0.08019056 Ry
     correction to one-el term =     186.73579606 Ry

     WARNING: you are using the parabolic pbc correction;
              the potential shift above must be added to 
              band and Fermi energies.

     convergence has been achieved in  37 iterations

     negative rho (up, down):  1.389E-04 0.000E+00

     Forces acting on atoms (cartesian axes, Ry/au):

     atom    1 type  1   force =     0.00000000    0.05378762   -0.00209520
     atom    2 type  1   force =     0.00000000   -0.00197990    0.00799249
     atom    3 type  1   force =     0.00000000   -0.00930042    0.02082175
     atom    4 type  1   force =     0.00000000    0.02923197   -0.03229633
     atom    5 type  2   force =     0.01283307   -0.00715402    0.00661754
     atom    6 type  2   force =    -0.01283307   -0.00715402    0.00661754
     atom    7 type  1   force =    -0.00132476   -0.00224018   -0.00282572
     atom    8 type  1   force =     0.00132476   -0.00224018   -0.00282572
     atom    9 type  2   force =     0.00000000   -0.00854293    0.00343852
     atom   10 type  2   force =     0.00000000    0.00849531   -0.00676381
     atom   11 type  1   force =     0.00554636   -0.00257831   -0.00524655
     atom   12 type  1   force =    -0.00554636   -0.00257831   -0.00524655
     atom   13 type  1   force =     0.00000000   -0.00165481   -0.02068285
     atom   14 type  1   force =     0.00000000    0.00115991    0.01029275
     atom   15 type  1   force =     0.00000000    0.00013506   -0.01324794
     atom   16 type  1   force =     0.00000000   -0.00288407    0.00091677
     atom   17 type  2   force =     0.00000000   -0.00258488    0.00000000
     atom   18 type  2   force =     0.00000000   -0.00052830    0.00000000
     atom   19 type  1   force =    -0.00464278    0.00218590    0.00000000
     atom   20 type  1   force =     0.00464278    0.00218590    0.00000000
     atom   21 type  2   force =    -0.00601464   -0.00033805    0.00000000
     atom   22 type  2   force =     0.00601464   -0.00033805    0.00000000
     atom   23 type  1   force =    -0.00180493    0.00161611    0.00000000
     atom   24 type  1   force =     0.00180493    0.00161611    0.00000000
     atom   25 type  1   force =     0.00000000    0.00013506    0.01324794
     atom   26 type  1   force =     0.00000000   -0.00288407   -0.00091677
     atom   27 type  1   force =     0.00000000   -0.00165481    0.02068285
     atom   28 type  1   force =     0.00000000    0.00115991   -0.01029275
     atom   29 type  2   force =     0.01283307   -0.00715402   -0.00661754
     atom   30 type  2   force =    -0.01283307   -0.00715402   -0.00661754
     atom   31 type  1   force =    -0.00132476   -0.00224018    0.00282572
     atom   32 type  1   force =     0.00132476   -0.00224018    0.00282572
     atom   33 type  2   force =     0.00000000   -0.00854293   -0.00343852
     atom   34 type  2   force =     0.00000000    0.00849531    0.00676381
     atom   35 type  1   force =     0.00554636   -0.00257831    0.00524655
     atom   36 type  1   force =    -0.00554636   -0.00257831    0.00524655
     atom   37 type  1   force =     0.00000000   -0.00930042   -0.02082175
     atom   38 type  1   force =     0.00000000    0.02923197    0.03229633
     atom   39 type  1   force =     0.00000000    0.05378762    0.00209520
     atom   40 type  1   force =     0.00000000   -0.00197990   -0.00799249
     atom   41 type  3   force =     0.00000000   -0.01523843   -0.00991228
     atom   42 type  3   force =     0.00000000   -0.01523843    0.00991228
     atom   43 type  3   force =     0.00000000   -0.02394761    0.03801777
     atom   44 type  3   force =     0.00000000   -0.02394761   -0.03801777
     atom   45 type  3   force =     0.00000000   -0.00722406    0.00510447
     atom   46 type  3   force =     0.00000000   -0.00722406   -0.00510447
     The non-local contrib.  to forces
     atom    1 type  1   force =     0.00000000   -1.17415239    1.00733770
     atom    2 type  1   force =     0.00000000   -0.05006178    1.23076086
     atom    3 type  1   force =     0.00000000   -0.80634651   -0.76156557
     atom    4 type  1   force =     0.00000000    1.06493221   -0.66080607
     atom    5 type  2   force =    -0.02172265    0.01258621    0.02859700
     atom    6 type  2   force =     0.02172265    0.01258621    0.02859700
     atom    7 type  1   force =     0.09857402   -0.06088987   -0.28963773
     atom    8 type  1   force =    -0.09857402   -0.06088987   -0.28963773
     atom    9 type  2   force =     0.00000000   -0.00341636    0.01484546
     atom   10 type  2   force =     0.00000000    0.02172172   -0.03895567
     atom   11 type  1   force =    -0.04029871    0.06012693    0.03216232
     atom   12 type  1   force =     0.04029871    0.06012693    0.03216232
     atom   13 type  1   force =     0.00000000    0.03888623   -0.01326783
     atom   14 type  1   force =     0.00000000    0.03934105   -0.03783072
     atom   15 type  1   force =     0.00000000   -0.07236053   -0.01359613
     atom   16 type  1   force =     0.00000000   -0.03427266    0.19152261
     atom   17 type  2   force =     0.00000000    0.01000072    0.00000000
     atom   18 type  2   force =     0.00000000   -0.00134286    0.00000000
     atom   19 type  1   force =     0.02364286    0.09870270    0.00000000
     atom   20 type  1   force =    -0.02364286    0.09870270    0.00000000
     atom   21 type  2   force =    -0.00561467    0.00176833    0.00000000
     atom   22 type  2   force =     0.00561467    0.00176833    0.00000000
     atom   23 type  1   force =     0.00242526   -0.10184649    0.00000000
     atom   24 type  1   force =    -0.00242526   -0.10184649    0.00000000
     atom   25 type  1   force =     0.00000000   -0.07236053    0.01359613
     atom   26 type  1   force =     0.00000000   -0.03427266   -0.19152261
     atom   27 type  1   force =     0.00000000    0.03888623    0.01326783
     atom   28 type  1   force =     0.00000000    0.03934105    0.03783072
     atom   29 type  2   force =    -0.02172265    0.01258621   -0.02859700
     atom   30 type  2   force =     0.02172265    0.01258621   -0.02859700
     atom   31 type  1   force =     0.09857402   -0.06088987    0.28963773
     atom   32 type  1   force =    -0.09857402   -0.06088987    0.28963773
     atom   33 type  2   force =     0.00000000   -0.00341636   -0.01484546
     atom   34 type  2   force =     0.00000000    0.02172172    0.03895567
     atom   35 type  1   force =    -0.04029871    0.06012693   -0.03216232
     atom   36 type  1   force =     0.04029871    0.06012693   -0.03216232
     atom   37 type  1   force =     0.00000000   -0.80634651    0.76156557
     atom   38 type  1   force =     0.00000000    1.06493221    0.66080607
     atom   39 type  1   force =     0.00000000   -1.17415239   -1.00733770
     atom   40 type  1   force =     0.00000000   -0.05006178   -1.23076086
     atom   41 type  3   force =     0.00000000    0.09197167   -0.00317501
     atom   42 type  3   force =     0.00000000    0.09197167    0.00317501
     atom   43 type  3   force =     0.00000000   -0.05043829    0.08662907
     atom   44 type  3   force =     0.00000000   -0.05043829   -0.08662907
     atom   45 type  3   force =     0.00000000    0.05688902    0.09581467
     atom   46 type  3   force =     0.00000000    0.05688902   -0.09581467
     The ionic contribution  to forces
     atom    1 type  1   force =    -0.00000000    2.56712630  -98.33398651
     atom    2 type  1   force =     0.00000000    0.48248919 -101.67017730
     atom    3 type  1   force =     0.00000000   -0.72677746  -91.49095723
     atom    4 type  1   force =    -0.00000000   -1.88539133  -92.18164859
     atom    5 type  2   force =    -0.25561208   -0.99071590 -173.63835175
     atom    6 type  2   force =     0.25561208   -0.99071590 -173.63835175
     atom    7 type  1   force =     0.12623094    0.05549356  -59.07539126
     atom    8 type  1   force =    -0.12623094    0.05549356  -59.07539126
     atom    9 type  2   force =     0.00000000    1.54762214 -170.83685490
     atom   10 type  2   force =     0.00000000    1.94286296 -175.33727331
     atom   11 type  1   force =     0.78081577    0.09246677  -66.58629684
     atom   12 type  1   force =    -0.78081577    0.09246677  -66.58629684
     atom   13 type  1   force =    -0.00000000   -0.44211200  -39.07141179
     atom   14 type  1   force =     0.00000000   -0.66347795  -38.83234824
     atom   15 type  1   force =     0.00000000    0.38827266  -25.58204655
     atom   16 type  1   force =     0.00000000    0.57518991  -27.40769543
     atom   17 type  2   force =    -0.00000000    0.94865245   -0.00044800
     atom   18 type  2   force =    -0.00000000    0.69790526   -0.00042674
     atom   19 type  1   force =     0.06523624    0.52806587   -0.00008289
     atom   20 type  1   force =    -0.06523624    0.52806587   -0.00008289
     atom   21 type  2   force =     1.39584210   -0.16049744   -0.00024415
     atom   22 type  2   force =    -1.39584210   -0.16049744   -0.00024415
     atom   23 type  1   force =    -0.05117731   -0.52055882   -0.00008137
     atom   24 type  1   force =     0.05117731   -0.52055882   -0.00008137
     atom   25 type  1   force =     0.00000000    0.38827196   25.58180939
     atom   26 type  1   force =     0.00000000    0.57519445   27.40751256
     atom   27 type  1   force =    -0.00000000   -0.44212814   39.07170483
     atom   28 type  1   force =     0.00000000   -0.66349661   38.83264181
     atom   29 type  2   force =    -0.25559193   -0.99072499  173.63863154
     atom   30 type  2   force =     0.25559193   -0.99072499  173.63863154
     atom   31 type  1   force =     0.12623461    0.05547095   59.07546570
     atom   32 type  1   force =    -0.12623461    0.05547095   59.07546570
     atom   33 type  2   force =     0.00000000    1.54763686  170.83699699
     atom   34 type  2   force =    -0.00000000    1.94287136  175.33742870
     atom   35 type  1   force =     0.78081663    0.09249305   66.58636565
     atom   36 type  1   force =    -0.78081663    0.09249305   66.58636565
     atom   37 type  1   force =     0.00000000   -0.72662643   91.49084673
     atom   38 type  1   force =     0.00000000   -1.88558184   92.18155331
     atom   39 type  1   force =    -0.00000000    2.56712907   98.33411449
     atom   40 type  1   force =    -0.00000000    0.48248964  101.67024058
     atom   41 type  3   force =     0.00000000   -2.23897225  -15.80634670
     atom   42 type  3   force =     0.00000000   -2.23893077   15.80628466
     atom   43 type  3   force =    -0.00000000    1.34755958  -17.96780793
     atom   44 type  3   force =     0.00000000    1.34775411   17.96802888
     atom   45 type  3   force =    -0.00000000   -1.87915323  -18.05049226
     atom   46 type  3   force =    -0.00000000   -1.87936598   18.05072924
     The local contribution  to forces
     atom    1 type  1   force =    -0.00000000   -1.29733286   97.24430102
     atom    2 type  1   force =     0.00000000   -0.38604929  100.36239373
     atom    3 type  1   force =     0.00000000    1.55265786   92.36781480
     atom    4 type  1   force =     0.00000000    0.81631829   92.86239983
     atom    5 type  2   force =     0.30446925    0.96437471  173.66814324
     atom    6 type  2   force =    -0.30446925    0.96437471  173.66814324
     atom    7 type  1   force =    -0.22473872    0.02051918   59.35268552
     atom    8 type  1   force =     0.22473872    0.02051918   59.35268552
     atom    9 type  2   force =     0.00000000   -1.55616179  170.77730418
     atom   10 type  2   force =     0.00000000   -1.93420144  175.30113995
     atom   11 type  1   force =    -0.72611557   -0.17564620   66.53620846
     atom   12 type  1   force =     0.72611557   -0.17564620   66.53620846
     atom   13 type  1   force =    -0.00000000    0.40234532   39.07020659
     atom   14 type  1   force =    -0.00000000    0.62382611   38.88369431
     atom   15 type  1   force =     0.00000000   -0.31683770   25.57937689
     atom   16 type  1   force =    -0.00000000   -0.54371318   27.21537674
     atom   17 type  2   force =    -0.00000000   -0.96099977   -0.00586120
     atom   18 type  2   force =     0.00000000   -0.69755204   -0.00591231
     atom   19 type  1   force =    -0.09301463   -0.62271898   -0.00247087
     atom   20 type  1   force =     0.09301463   -0.62271898   -0.00247087
     atom   21 type  2   force =    -1.39515569    0.15849122   -0.00606837
     atom   22 type  2   force =     1.39515569    0.15849122   -0.00606837
     atom   23 type  1   force =     0.04739339    0.62209768   -0.00247325
     atom   24 type  1   force =    -0.04739339    0.62209768   -0.00247325
     atom   25 type  1   force =     0.00000000   -0.31684855  -25.58117259
     atom   26 type  1   force =    -0.00000000   -0.54374081  -27.21717093
     atom   27 type  1   force =     0.00000000    0.40233109  -39.07198210
     atom   28 type  1   force =    -0.00000000    0.62381894  -38.88548967
     atom   29 type  2   force =     0.30446989    0.96434957 -173.67421114
     atom   30 type  2   force =    -0.30446989    0.96434957 -173.67421114
     atom   31 type  1   force =    -0.22472759    0.02052312  -59.35513060
     atom   32 type  1   force =     0.22472759    0.02052312  -59.35513060
     atom   33 type  2   force =    -0.00000000   -1.55625757 -170.78319625
     atom   34 type  2   force =     0.00000000   -1.93418560 -175.30689276
     atom   35 type  1   force =    -0.72609054   -0.17565164  -66.53868545
     atom   36 type  1   force =     0.72609054   -0.17565164  -66.53868545
     atom   37 type  1   force =    -0.00000000    1.55264131  -92.37151966
     atom   38 type  1   force =    -0.00000000    0.81639030  -92.86613178
     atom   39 type  1   force =    -0.00000000   -1.29739174  -97.24592425
     atom   40 type  1   force =    -0.00000000   -0.38604503 -100.36378387
     atom   41 type  3   force =    -0.00000000    2.15201505   15.79764031
     atom   42 type  3   force =    -0.00000000    2.15201505  -15.79764031
     atom   43 type  3   force =     0.00000000   -1.32595068   17.95710623
     atom   44 type  3   force =     0.00000000   -1.32595068  -17.95710623
     atom   45 type  3   force =     0.00000000    1.82453954   18.00863314
     atom   46 type  3   force =     0.00000000    1.82453954  -18.00863314
     The core correction contribution to forces
     atom    1 type  1   force =     0.00000000    0.01049916   -0.00997879
     atom    2 type  1   force =     0.00000000    0.00053904   -0.01044181
     atom    3 type  1   force =     0.00000000    0.00847884    0.00675203
     atom    4 type  1   force =    -0.00000000   -0.01108733    0.00657372
     atom    5 type  2   force =     0.00000000    0.00000000    0.00000000
     atom    6 type  2   force =     0.00000000    0.00000000    0.00000000
     atom    7 type  1   force =    -0.00117473   -0.00010110    0.00297972
     atom    8 type  1   force =     0.00117473   -0.00010110    0.00297972
     atom    9 type  2   force =     0.00000000    0.00000000    0.00000000
     atom   10 type  2   force =     0.00000000    0.00000000    0.00000000
     atom   11 type  1   force =     0.00006526    0.00022909   -0.00024346
     atom   12 type  1   force =    -0.00006526    0.00022909   -0.00024346
     atom   13 type  1   force =    -0.00000000   -0.00041014    0.00041319
     atom   14 type  1   force =     0.00000000   -0.00034291    0.00031817
     atom   15 type  1   force =     0.00000000    0.00086148    0.00022610
     atom   16 type  1   force =    -0.00000000    0.00021689   -0.00243169
     atom   17 type  2   force =     0.00000000    0.00000000    0.00000000
     atom   18 type  2   force =     0.00000000    0.00000000    0.00000000
     atom   19 type  1   force =    -0.00018449   -0.00052187   -0.00000210
     atom   20 type  1   force =     0.00018449   -0.00052187   -0.00000210
     atom   21 type  2   force =     0.00000000    0.00000000    0.00000000
     atom   22 type  2   force =     0.00000000    0.00000000    0.00000000
     atom   23 type  1   force =     0.00006375    0.00054975   -0.00000199
     atom   24 type  1   force =    -0.00006375    0.00054975   -0.00000199
     atom   25 type  1   force =     0.00000000    0.00086186   -0.00022841
     atom   26 type  1   force =     0.00000000    0.00021673    0.00242958
     atom   27 type  1   force =    -0.00000000   -0.00041031   -0.00041542
     atom   28 type  1   force =    -0.00000000   -0.00034306   -0.00032049
     atom   29 type  2   force =     0.00000000    0.00000000    0.00000000
     atom   30 type  2   force =     0.00000000    0.00000000    0.00000000
     atom   31 type  1   force =    -0.00117472   -0.00010120   -0.00298149
     atom   32 type  1   force =     0.00117472   -0.00010120   -0.00298149
     atom   33 type  2   force =     0.00000000    0.00000000    0.00000000
     atom   34 type  2   force =     0.00000000    0.00000000    0.00000000
     atom   35 type  1   force =     0.00006528    0.00022909    0.00024143
     atom   36 type  1   force =    -0.00006528    0.00022909    0.00024143
     atom   37 type  1   force =    -0.00000000    0.00848057   -0.00675724
     atom   38 type  1   force =     0.00000000   -0.01108926   -0.00657917
     atom   39 type  1   force =     0.00000000    0.01049960    0.00997622
     atom   40 type  1   force =    -0.00000000    0.00053918    0.01044007
     atom   41 type  3   force =     0.00000000    0.00000000    0.00000000
     atom   42 type  3   force =     0.00000000    0.00000000    0.00000000
     atom   43 type  3   force =     0.00000000    0.00000000    0.00000000
     atom   44 type  3   force =     0.00000000    0.00000000    0.00000000
     atom   45 type  3   force =     0.00000000    0.00000000    0.00000000
     atom   46 type  3   force =     0.00000000    0.00000000    0.00000000
     The Hubbard contrib.    to forces
     atom    1 type  1   force =     0.00000000    0.00000000    0.00000000
     atom    2 type  1   force =     0.00000000    0.00000000    0.00000000
     atom    3 type  1   force =     0.00000000    0.00000000    0.00000000
     atom    4 type  1   force =     0.00000000    0.00000000    0.00000000
     atom    5 type  2   force =     0.00000000    0.00000000    0.00000000
     atom    6 type  2   force =     0.00000000    0.00000000    0.00000000
     atom    7 type  1   force =     0.00000000    0.00000000    0.00000000
     atom    8 type  1   force =     0.00000000    0.00000000    0.00000000
     atom    9 type  2   force =     0.00000000    0.00000000    0.00000000
     atom   10 type  2   force =     0.00000000    0.00000000    0.00000000
     atom   11 type  1   force =     0.00000000    0.00000000    0.00000000
     atom   12 type  1   force =     0.00000000    0.00000000    0.00000000
     atom   13 type  1   force =     0.00000000    0.00000000    0.00000000
     atom   14 type  1   force =     0.00000000    0.00000000    0.00000000
     atom   15 type  1   force =     0.00000000    0.00000000    0.00000000
     atom   16 type  1   force =     0.00000000    0.00000000    0.00000000
     atom   17 type  2   force =     0.00000000    0.00000000    0.00000000
     atom   18 type  2   force =     0.00000000    0.00000000    0.00000000
     atom   19 type  1   force =     0.00000000    0.00000000    0.00000000
     atom   20 type  1   force =     0.00000000    0.00000000    0.00000000
     atom   21 type  2   force =     0.00000000    0.00000000    0.00000000
     atom   22 type  2   force =     0.00000000    0.00000000    0.00000000
     atom   23 type  1   force =     0.00000000    0.00000000    0.00000000
     atom   24 type  1   force =     0.00000000    0.00000000    0.00000000
     atom   25 type  1   force =     0.00000000    0.00000000    0.00000000
     atom   26 type  1   force =     0.00000000    0.00000000    0.00000000
     atom   27 type  1   force =     0.00000000    0.00000000    0.00000000
     atom   28 type  1   force =     0.00000000    0.00000000    0.00000000
     atom   29 type  2   force =     0.00000000    0.00000000    0.00000000
     atom   30 type  2   force =     0.00000000    0.00000000    0.00000000
     atom   31 type  1   force =     0.00000000    0.00000000    0.00000000
     atom   32 type  1   force =     0.00000000    0.00000000    0.00000000
     atom   33 type  2   force =     0.00000000    0.00000000    0.00000000
     atom   34 type  2   force =     0.00000000    0.00000000    0.00000000
     atom   35 type  1   force =     0.00000000    0.00000000    0.00000000
     atom   36 type  1   force =     0.00000000    0.00000000    0.00000000
     atom   37 type  1   force =     0.00000000    0.00000000    0.00000000
     atom   38 type  1   force =     0.00000000    0.00000000    0.00000000
     atom   39 type  1   force =     0.00000000    0.00000000    0.00000000
     atom   40 type  1   force =     0.00000000    0.00000000    0.00000000
     atom   41 type  3   force =     0.00000000    0.00000000    0.00000000
     atom   42 type  3   force =     0.00000000    0.00000000    0.00000000
     atom   43 type  3   force =     0.00000000    0.00000000    0.00000000
     atom   44 type  3   force =     0.00000000    0.00000000    0.00000000
     atom   45 type  3   force =     0.00000000    0.00000000    0.00000000
     atom   46 type  3   force =     0.00000000    0.00000000    0.00000000
     The SCF correction term to forces
     atom    1 type  1   force =     0.00000000    0.00000941    0.00000492
     atom    2 type  1   force =    -0.00000000    0.00000327   -0.00000610
     atom    3 type  1   force =     0.00000000   -0.00001620   -0.00002547
     atom    4 type  1   force =    -0.00000000   -0.00000456   -0.00000707
     atom    5 type  2   force =    -0.00001813   -0.00001071    0.00000373
     atom    6 type  2   force =     0.00001813   -0.00001071    0.00000373
     atom    7 type  1   force =    -0.00001362    0.00000880    0.00000629
     atom    8 type  1   force =     0.00001362    0.00000880    0.00000629
     atom    9 type  2   force =     0.00000000    0.00001262   -0.00000359
     atom   10 type  2   force =    -0.00000000    0.00000404    0.00001655
     atom   11 type  1   force =    -0.00001738   -0.00000655   -0.00000046
     atom   12 type  1   force =     0.00001738   -0.00000655   -0.00000046
     atom   13 type  1   force =     0.00000000   -0.00000224    0.00000529
     atom   14 type  1   force =    -0.00000000   -0.00000110    0.00002553
     atom   15 type  1   force =     0.00000000    0.00000058    0.00000108
     atom   16 type  1   force =    -0.00000000    0.00000064    0.00001839
     atom   17 type  2   force =     0.00000000   -0.00000020    0.00000999
     atom   18 type  2   force =    -0.00000000    0.00000005    0.00000994
     atom   19 type  1   force =     0.00001220    0.00000452    0.00000358
     atom   20 type  1   force =    -0.00001220    0.00000452    0.00000358
     atom   21 type  2   force =     0.00000288    0.00000085    0.00000999
     atom   22 type  2   force =    -0.00000288    0.00000085    0.00000999
     atom   23 type  1   force =     0.00001210   -0.00000517    0.00000365
     atom   24 type  1   force =    -0.00001210   -0.00000517    0.00000365
     atom   25 type  1   force =     0.00000000    0.00000063    0.00000375
     atom   26 type  1   force =    -0.00000000    0.00000071   -0.00001396
     atom   27 type  1   force =     0.00000000   -0.00000233   -0.00000381
     atom   28 type  1   force =    -0.00000000   -0.00000120   -0.00002417
     atom   29 type  2   force =    -0.00001805   -0.00001098   -0.00000990
     atom   30 type  2   force =     0.00001805   -0.00001098   -0.00000990
     atom   31 type  1   force =    -0.00001361    0.00000874   -0.00000821
     atom   32 type  1   force =     0.00001361    0.00000874   -0.00000821
     atom   33 type  2   force =     0.00000000    0.00001297   -0.00000278
     atom   34 type  2   force =    -0.00000000    0.00000434   -0.00002332
     atom   35 type  1   force =    -0.00001738   -0.00000641   -0.00000183
     atom   36 type  1   force =     0.00001738   -0.00000641   -0.00000183
     atom   37 type  1   force =     0.00000000   -0.00001633    0.00002305
     atom   38 type  1   force =    -0.00000000   -0.00000466    0.00000456
     atom   39 type  1   force =     0.00000000    0.00000951   -0.00000665
     atom   40 type  1   force =    -0.00000000    0.00000334    0.00000439
     atom   41 type  3   force =     0.00000000    0.00000125   -0.00000081
     atom   42 type  3   force =     0.00000000    0.00000123    0.00000051
     atom   43 type  3   force =    -0.00000000   -0.00000016   -0.00000192
     atom   44 type  3   force =    -0.00000000   -0.00000015    0.00000169
     atom   45 type  3   force =     0.00000000   -0.00000078    0.00000000
     atom   46 type  3   force =     0.00000000   -0.00000081   -0.00000026

     Total force =     0.137741     Total SCF correction =     0.000105

     BFGS Geometry Optimization
     Energy error            =      0.0E+00 Ry
     Gradient error          =      5.4E-02 Ry/Bohr

     number of scf cycles    =   1
     number of bfgs steps    =   0

     energy             new  =   -3435.0620924336 Ry

     new trust radius        =       0.0538284079 bohr
     new conv_thr            =       0.0000000010 Ry


ATOMIC_POSITIONS (crystal)
O             0.0000000000        0.4128906282        0.2733219751
O             0.5000000000        0.4935669204        0.2736485686
O             0.0000000000       -0.0013416512        0.2977126832
O             0.5000000000       -0.0078504387        0.3004907238
Ru            0.2515012729       -0.0070854634        0.3572786875
Ru            0.7484987271       -0.0070854634        0.3572786875
O             0.2561541709        0.3058597346        0.3641680481
O             0.7438458291        0.3058597346        0.3641680481
Ru            0.0000000000        0.4894296665        0.3577350961
Ru            0.5000000000        0.4934781529        0.3517087452
O             0.2370975498        0.6826607435        0.3545224409
O             0.7629024502        0.6826607435        0.3545224409
O             0.0000000000       -0.0036588328        0.4114115222
O             0.5000000000       -0.0096386183        0.4103927871
O             0.0000000000        0.5074755047        0.4473235467
O             0.5000000000        0.5150373403        0.4436570084
Ru            0.0000000000        0.0099995359        0.5000010000
Ru            0.5000000000        0.0062131960        0.5000010000
O             0.2536677935        0.1945593422        0.5000010000
O             0.7463322065        0.1945593422        0.5000010000
Ru            0.2519429074        0.5089958113        0.5000010000
Ru            0.7480570926        0.5089958113        0.5000010000
O             0.2488541470        0.8231845916        0.5000010000
O             0.7511458530        0.8231845916        0.5000010000
O             0.0000000000        0.5074755047        0.5526774533
O             0.5000000000        0.5150373403        0.5563439916
O             0.0000000000       -0.0036588328        0.5885894778
O             0.5000000000       -0.0096386183        0.5896082129
Ru            0.2515012729       -0.0070854634        0.6427223125
Ru            0.7484987271       -0.0070854634        0.6427223125
O             0.2561541709        0.3058597346        0.6358329519
O             0.7438458291        0.3058597346        0.6358329519
Ru            0.0000000000        0.4894296665        0.6422659039
Ru            0.5000000000        0.4934781529        0.6482922548
O             0.2370975498        0.6826607435        0.6454785591
O             0.7629024502        0.6826607435        0.6454785591
O             0.0000000000       -0.0013416512        0.7022893168
O             0.5000000000       -0.0078504387        0.6995112762
O             0.0000000000        0.4128906282        0.7266790249
O             0.5000000000        0.4935669204        0.7263524314
H             0.0000000000        0.2393357737        0.2757517791
H             0.0000000000        0.2393357737        0.7242482209
H             0.5000000000        0.0746653726        0.2633041162
H             0.5000000000        0.0746653726        0.7366958838
H             0.0000000000        0.9131110413        0.2596397099
H             0.0000000000        0.9131110413        0.7403602901



     Writing config-only to output data dir /storage/home/mgm6007/ixd4/Maria/Strain1_Files/RuO2-110-0-234/RuO2-110-0-234.save/
     NEW-OLD atomic charge density approx. for the potential

     Check: negative core charge=   -0.000001

     negative rho (up, down):  1.409E-04 0.000E+00

     add environment contribution to local potential
     Polarization accuracy = 4.0E-12, # of iterations =  43

     total cpu time spent up to now is    16509.4 secs

     per-process dynamical memory:   203.0 Mb

     Self-consistent Calculation

     iteration #  1     ecut=    50.00 Ry     beta= 0.70
     Davidson diagonalization with overlap
     ethr =  1.00E-06,  avg # of iterations =  6.0

     negative rho (up, down):  1.288E-04 0.000E+00

     add environment contribution to local potential
     Polarization accuracy = 8.7E-12, # of iterations =  42

     total cpu time spent up to now is    16676.6 secs

     total energy              =   -3435.06754223 Ry
     estimated scf accuracy    <       0.01223603 Ry
     electrostatic embedding   =      -0.08301231 Ry
     cavitation energy         =       0.02078470 Ry
     PV energy                 =      -0.08008337 Ry
     correction to one-el term =     186.31510341 Ry

     iteration #  2     ecut=    50.00 Ry     beta= 0.70
     Davidson diagonalization with overlap
     ethr =  3.34E-06,  avg # of iterations =  2.0

     negative rho (up, down):  1.709E-04 0.000E+00

     add environment contribution to local potential
     Polarization accuracy = 7.5E-12, # of iterations =  42

     total cpu time spent up to now is    16825.8 secs

     total energy              =   -3435.06851868 Ry
     estimated scf accuracy    <       0.01192635 Ry
     electrostatic embedding   =      -0.08187887 Ry
     cavitation energy         =       0.02077735 Ry
     PV energy                 =      -0.08013975 Ry
     correction to one-el term =     186.30793138 Ry

     iteration #  3     ecut=    50.00 Ry     beta= 0.70
     Davidson diagonalization with overlap
     ethr =  3.26E-06,  avg # of iterations =  1.0

     negative rho (up, down):  1.692E-04 0.000E+00

     add environment contribution to local potential
     Polarization accuracy = 5.7E-12, # of iterations =  42

     total cpu time spent up to now is    16991.5 secs

     total energy              =   -3435.06899196 Ry
     estimated scf accuracy    <       0.00290011 Ry
     electrostatic embedding   =      -0.08171595 Ry
     cavitation energy         =       0.02078368 Ry
     PV energy                 =      -0.08013002 Ry
     correction to one-el term =     186.39641262 Ry

     iteration #  4     ecut=    50.00 Ry     beta= 0.70
     Davidson diagonalization with overlap
     ethr =  7.92E-07,  avg # of iterations =  1.0

     negative rho (up, down):  1.796E-04 0.000E+00

     add environment contribution to local potential
     Polarization accuracy = 4.7E-12, # of iterations =  43

     total cpu time spent up to now is    17111.3 secs

     total energy              =   -3435.06907151 Ry
     estimated scf accuracy    <       0.00024456 Ry
     electrostatic embedding   =      -0.08120085 Ry
     cavitation energy         =       0.02078592 Ry
     PV energy                 =      -0.08013551 Ry
     correction to one-el term =     186.43842015 Ry

     iteration #  5     ecut=    50.00 Ry     beta= 0.70
     Davidson diagonalization with overlap
     ethr =  6.68E-08,  avg # of iterations =  2.0

     negative rho (up, down):  1.875E-04 0.000E+00

     add environment contribution to local potential
     Polarization accuracy = 4.5E-12, # of iterations =  42

     total cpu time spent up to now is    17253.2 secs

     total energy              =   -3435.06910891 Ry
     estimated scf accuracy    <       0.00013138 Ry
     electrostatic embedding   =      -0.08063140 Ry
     cavitation energy         =       0.02078754 Ry
     PV energy                 =      -0.08014141 Ry
     correction to one-el term =     186.48949276 Ry

     iteration #  6     ecut=    50.00 Ry     beta= 0.70
     Davidson diagonalization with overlap
     ethr =  3.59E-08,  avg # of iterations =  2.0

     negative rho (up, down):  1.886E-04 0.000E+00

     add environment contribution to local potential
     Polarization accuracy = 4.4E-12, # of iterations =  42

     total cpu time spent up to now is    17377.5 secs

     total energy              =   -3435.06912233 Ry
     estimated scf accuracy    <       0.00002227 Ry
     electrostatic embedding   =      -0.08037546 Ry
     cavitation energy         =       0.02078808 Ry
     PV energy                 =      -0.08014216 Ry
     correction to one-el term =     186.52254802 Ry

     iteration #  7     ecut=    50.00 Ry     beta= 0.70
     Davidson diagonalization with overlap
     ethr =  6.09E-09,  avg # of iterations =  2.0

     negative rho (up, down):  1.955E-04 0.000E+00

     add environment contribution to local potential
     Polarization accuracy = 3.5E-12, # of iterations =  42

     total cpu time spent up to now is    17522.5 secs

     total energy              =   -3435.06912532 Ry
     estimated scf accuracy    <       0.00001220 Ry
     electrostatic embedding   =      -0.08019245 Ry
     cavitation energy         =       0.02078757 Ry
     PV energy                 =      -0.08014319 Ry
     correction to one-el term =     186.54300094 Ry

     iteration #  8     ecut=    50.00 Ry     beta= 0.70
     Davidson diagonalization with overlap
     ethr =  3.33E-09,  avg # of iterations =  3.0

     negative rho (up, down):  1.979E-04 0.000E+00

     add environment contribution to local potential
     Polarization accuracy = 2.7E-12, # of iterations =  42

     total cpu time spent up to now is    17659.6 secs

     total energy              =   -3435.06913002 Ry
     estimated scf accuracy    <       0.00000608 Ry
     electrostatic embedding   =      -0.07979008 Ry
     cavitation energy         =       0.02078623 Ry
     PV energy                 =      -0.08014515 Ry
     correction to one-el term =     186.59606445 Ry

     iteration #  9     ecut=    50.00 Ry     beta= 0.70
     Davidson diagonalization with overlap
     ethr =  1.66E-09,  avg # of iterations =  2.0

     negative rho (up, down):  1.981E-04 0.000E+00

     add environment contribution to local potential
     Polarization accuracy = 3.7E-12, # of iterations =  42

     total cpu time spent up to now is    17798.1 secs

     total energy              =   -3435.06913050 Ry
     estimated scf accuracy    <       0.00000290 Ry
     electrostatic embedding   =      -0.07964672 Ry
     cavitation energy         =       0.02078572 Ry
     PV energy                 =      -0.08014612 Ry
     correction to one-el term =     186.61620179 Ry

     iteration # 10     ecut=    50.00 Ry     beta= 0.70
     Davidson diagonalization with overlap
     ethr =  7.93E-10,  avg # of iterations =  2.0

     negative rho (up, down):  1.943E-04 0.000E+00

     add environment contribution to local potential
     Polarization accuracy = 3.7E-12, # of iterations =  42

     total cpu time spent up to now is    17949.8 secs

     total energy              =   -3435.06913039 Ry
     estimated scf accuracy    <       0.00000158 Ry
     electrostatic embedding   =      -0.07956287 Ry
     cavitation energy         =       0.02078535 Ry
     PV energy                 =      -0.08014706 Ry
     correction to one-el term =     186.62887092 Ry

     iteration # 11     ecut=    50.00 Ry     beta= 0.70
     Davidson diagonalization with overlap
     ethr =  4.32E-10,  avg # of iterations =  3.0

     negative rho (up, down):  1.844E-04 0.000E+00

     add environment contribution to local potential
     Polarization accuracy = 3.6E-12, # of iterations =  43

     total cpu time spent up to now is    18094.2 secs

     total energy              =   -3435.06913032 Ry
     estimated scf accuracy    <       0.00000081 Ry
     electrostatic embedding   =      -0.07946575 Ry
     cavitation energy         =       0.02078475 Ry
     PV energy                 =      -0.08014871 Ry
     correction to one-el term =     186.64441417 Ry

     iteration # 12     ecut=    50.00 Ry     beta= 0.70
     Davidson diagonalization with overlap
     ethr =  2.22E-10,  avg # of iterations =  2.0

     negative rho (up, down):  1.766E-04 0.000E+00

     add environment contribution to local potential
     Polarization accuracy = 3.6E-12, # of iterations =  42

     total cpu time spent up to now is    18232.5 secs

     total energy              =   -3435.06913052 Ry
     estimated scf accuracy    <       0.00000025 Ry
     electrostatic embedding   =      -0.07944677 Ry
     cavitation energy         =       0.02078445 Ry
     PV energy                 =      -0.08014989 Ry
     correction to one-el term =     186.64983785 Ry

     iteration # 13     ecut=    50.00 Ry     beta= 0.70
     Davidson diagonalization with overlap
     ethr =  6.79E-11,  avg # of iterations =  2.0

     negative rho (up, down):  1.703E-04 0.000E+00

     add environment contribution to local potential
     Polarization accuracy = 3.2E-12, # of iterations =  42

     total cpu time spent up to now is    18370.5 secs

     total energy              =   -3435.06913062 Ry
     estimated scf accuracy    <       0.00000027 Ry
     electrostatic embedding   =      -0.07945819 Ry
     cavitation energy         =       0.02078445 Ry
     PV energy                 =      -0.08015016 Ry
     correction to one-el term =     186.64909847 Ry

     iteration # 14     ecut=    50.00 Ry     beta= 0.70
     Davidson diagonalization with overlap
     ethr =  6.79E-11,  avg # of iterations =  2.0

     negative rho (up, down):  1.609E-04 0.000E+00

     add environment contribution to local potential
     Polarization accuracy = 3.4E-12, # of iterations =  42

     total cpu time spent up to now is    18496.5 secs

     total energy              =   -3435.06913070 Ry
     estimated scf accuracy    <       0.00000007 Ry
     electrostatic embedding   =      -0.07946499 Ry
     cavitation energy         =       0.02078447 Ry
     PV energy                 =      -0.08015047 Ry
     correction to one-el term =     186.64808943 Ry

     iteration # 15     ecut=    50.00 Ry     beta= 0.70
     Davidson diagonalization with overlap
     ethr =  1.84E-11,  avg # of iterations =  2.0

     negative rho (up, down):  1.530E-04 0.000E+00

     add environment contribution to local potential
     Polarization accuracy = 3.2E-12, # of iterations =  42

     total cpu time spent up to now is    18621.9 secs

     total energy              =   -3435.06913079 Ry
     estimated scf accuracy    <       0.00000001 Ry
     electrostatic embedding   =      -0.07948191 Ry
     cavitation energy         =       0.02078454 Ry
     PV energy                 =      -0.08015068 Ry
     correction to one-el term =     186.64587808 Ry

     iteration # 16     ecut=    50.00 Ry     beta= 0.70
     Davidson diagonalization with overlap
     ethr =  3.67E-12,  avg # of iterations =  2.0

     negative rho (up, down):  1.483E-04 0.000E+00

     add environment contribution to local potential
     Polarization accuracy = 3.1E-12, # of iterations =  43

     total cpu time spent up to now is    18764.2 secs

     total energy              =   -3435.06913081 Ry
     estimated scf accuracy    <          5.6E-09 Ry
     electrostatic embedding   =      -0.07949222 Ry
     cavitation energy         =       0.02078462 Ry
     PV energy                 =      -0.08015081 Ry
     correction to one-el term =     186.64400877 Ry

     iteration # 17     ecut=    50.00 Ry     beta= 0.70
     Davidson diagonalization with overlap
     ethr =  1.54E-12,  avg # of iterations =  2.0

     negative rho (up, down):  1.437E-04 0.000E+00

     add environment contribution to local potential
     Polarization accuracy = 3.2E-12, # of iterations =  42

     total cpu time spent up to now is    18901.4 secs

     total energy              =   -3435.06913082 Ry
[...]
     atom   27 type  1   force =     0.00000000    0.00000000    0.00000000
     atom   28 type  1   force =     0.00000000    0.00000000    0.00000000
     atom   29 type  2   force =     0.00000000    0.00000000    0.00000000
     atom   30 type  2   force =     0.00000000    0.00000000    0.00000000
     atom   31 type  1   force =     0.00000000    0.00000000    0.00000000
     atom   32 type  1   force =     0.00000000    0.00000000    0.00000000
     atom   33 type  2   force =     0.00000000    0.00000000    0.00000000
     atom   34 type  2   force =     0.00000000    0.00000000    0.00000000
     atom   35 type  1   force =     0.00000000    0.00000000    0.00000000
     atom   36 type  1   force =     0.00000000    0.00000000    0.00000000
     atom   37 type  1   force =     0.00000000    0.00000000    0.00000000
     atom   38 type  1   force =     0.00000000    0.00000000    0.00000000
     atom   39 type  1   force =     0.00000000    0.00000000    0.00000000
     atom   40 type  1   force =     0.00000000    0.00000000    0.00000000
     atom   41 type  3   force =     0.00000000    0.00000000    0.00000000
     atom   42 type  3   force =     0.00000000    0.00000000    0.00000000
     atom   43 type  3   force =     0.00000000    0.00000000    0.00000000
     atom   44 type  3   force =     0.00000000    0.00000000    0.00000000
     atom   45 type  3   force =     0.00000000    0.00000000    0.00000000
     atom   46 type  3   force =     0.00000000    0.00000000    0.00000000
     The SCF correction term to forces
     atom    1 type  1   force =     0.00000000   -0.00000010   -0.00000203
     atom    2 type  1   force =    -0.00000000    0.00000159   -0.00000181
     atom    3 type  1   force =     0.00000000   -0.00000079   -0.00000351
     atom    4 type  1   force =    -0.00000000   -0.00000122   -0.00000116
     atom    5 type  2   force =    -0.00000112   -0.00000082   -0.00000497
     atom    6 type  2   force =     0.00000112   -0.00000082   -0.00000497
     atom    7 type  1   force =    -0.00000051    0.00000265   -0.00000244
     atom    8 type  1   force =     0.00000051    0.00000265   -0.00000244
     atom    9 type  2   force =     0.00000000    0.00000047   -0.00000797
     atom   10 type  2   force =    -0.00000000    0.00000129   -0.00000808
     atom   11 type  1   force =    -0.00000013   -0.00000234   -0.00000273
     atom   12 type  1   force =     0.00000013   -0.00000234   -0.00000273
     atom   13 type  1   force =     0.00000000    0.00000008   -0.00000181
     atom   14 type  1   force =    -0.00000000    0.00000006   -0.00000184
     atom   15 type  1   force =     0.00000000   -0.00000031   -0.00000233
     atom   16 type  1   force =    -0.00000000   -0.00000027   -0.00000243
     atom   17 type  2   force =     0.00000000    0.00000077   -0.00000072
     atom   18 type  2   force =    -0.00000000    0.00000080   -0.00000071
     atom   19 type  1   force =    -0.00000039    0.00000125   -0.00000027
     atom   20 type  1   force =     0.00000039    0.00000125   -0.00000027
     atom   21 type  2   force =    -0.00000054   -0.00000123   -0.00000072
     atom   22 type  2   force =     0.00000054   -0.00000123   -0.00000072
     atom   23 type  1   force =    -0.00000044   -0.00000096   -0.00000027
     atom   24 type  1   force =     0.00000044   -0.00000096   -0.00000027
     atom   25 type  1   force =     0.00000000   -0.00000031    0.00000184
     atom   26 type  1   force =    -0.00000000   -0.00000027    0.00000194
     atom   27 type  1   force =     0.00000000    0.00000007    0.00000141
     atom   28 type  1   force =    -0.00000000    0.00000006    0.00000144
     atom   29 type  2   force =    -0.00000111   -0.00000082    0.00000444
     atom   30 type  2   force =     0.00000111   -0.00000082    0.00000444
     atom   31 type  1   force =    -0.00000050    0.00000264    0.00000226
     atom   32 type  1   force =     0.00000050    0.00000264    0.00000226
     atom   33 type  2   force =     0.00000000    0.00000048    0.00000746
     atom   34 type  2   force =    -0.00000000    0.00000129    0.00000764
     atom   35 type  1   force =    -0.00000012   -0.00000233    0.00000252
     atom   36 type  1   force =     0.00000012   -0.00000233    0.00000252
     atom   37 type  1   force =     0.00000000   -0.00000078    0.00000355
     atom   38 type  1   force =    -0.00000000   -0.00000122    0.00000118
     atom   39 type  1   force =    -0.00000000   -0.00000010    0.00000216
     atom   40 type  1   force =     0.00000000    0.00000159    0.00000194
     atom   41 type  3   force =     0.00000000    0.00000034   -0.00000014
     atom   42 type  3   force =    -0.00000000    0.00000034    0.00000017
     atom   43 type  3   force =    -0.00000000    0.00000001   -0.00000054
     atom   44 type  3   force =     0.00000000    0.00000001    0.00000056
     atom   45 type  3   force =     0.00000000   -0.00000032   -0.00000043
     atom   46 type  3   force =    -0.00000000   -0.00000032    0.00000045

     Total force =     0.038140     Total SCF correction =     0.000023
     Energy error            =      1.8E-04 Ry
     Gradient error          =      1.4E-02 Ry/Bohr

     number of scf cycles    =  31
     number of bfgs steps    =  30

     energy             old  =   -3435.1059720615 Ry
     energy             new  =   -3435.1057969524 Ry

     CASE: energy            _new > energy            _old

     new trust radius        =       0.1274753274 bohr
     new conv_thr            =            4.7E-11 Ry


ATOMIC_POSITIONS (crystal)
O             0.0000000000        0.5347733060        0.2673944276
O             0.5000000000        0.4841375033        0.2713308566
O             0.0000000000       -0.0097603225        0.2999162492
O             0.5000000000       -0.0082064270        0.3039441641
Ru            0.2500796179       -0.0074393920        0.3585887308
Ru            0.7499203821       -0.0074393920        0.3585887308
O             0.2418833356        0.3036287404        0.3548943176
O             0.7581166644        0.3036287404        0.3548943176
Ru            0.0000000000        0.4933686997        0.3560244915
Ru            0.5000000000        0.4927771043        0.3494133092
O             0.2504684865        0.6799978792        0.3589764322
O             0.7495315135        0.6799978792        0.3589764322
O             0.0000000000       -0.0099662401        0.4107121428
O             0.5000000000       -0.0036000865        0.4118696124
O             0.0000000000        0.4862020195        0.4464382852
O             0.5000000000        0.4815665590        0.4431129387
Ru            0.0000000000       -0.0176008341        0.5000010000
Ru            0.5000000000       -0.0147144448        0.5000010000
O             0.2485542199        0.1691218700        0.5000010000
O             0.7514457801        0.1691218700        0.5000010000
Ru            0.2508706354        0.4830798990        0.5000010000
Ru            0.7491293646        0.4830798990        0.5000010000
O             0.2535279719        0.7977155461        0.5000010000
O             0.7464720281        0.7977155461        0.5000010000
O             0.0000000000        0.4862020195        0.5535627148
O             0.5000000000        0.4815665590        0.5568880613
O             0.0000000000       -0.0099662401        0.5892888572
O             0.5000000000       -0.0036000865        0.5881313876
Ru            0.2500796179       -0.0074393920        0.6414122692
Ru            0.7499203821       -0.0074393920        0.6414122692
O             0.2418833356        0.3036287404        0.6451066824
O             0.7581166644        0.3036287404        0.6451066824
Ru            0.0000000000        0.4933686997        0.6439765085
Ru            0.5000000000        0.4927771043        0.6505876908
O             0.2504684865        0.6799978792        0.6410245678
O             0.7495315135        0.6799978792        0.6410245678
O             0.0000000000       -0.0097603225        0.7000857508
O             0.5000000000       -0.0082064270        0.6960578359
O             0.0000000000        0.5347733060        0.7326065724
O             0.5000000000        0.4841375033        0.7286701434
H             0.0000000000        0.3921536434        0.2452470653
H             0.0000000000        0.3921536434        0.7547529347
H             0.5000000000        0.0382733989        0.2616199899
H             0.5000000000        0.0382733989        0.7383800101
H             0.0000000000        0.8563637110        0.2733663531
H             0.0000000000        0.8563637110        0.7266336469



     Writing config-only to output data dir /storage/home/mgm6007/ixd4/Maria/Strain1_Files/RuO2-110-0-234/RuO2-110-0-234.save/
     NEW-OLD atomic charge density approx. for the potential

     Check: negative core charge=   -0.000001

     negative rho (up, down):  1.456E-04 0.000E+00

     add environment contribution to local potential
     Polarization accuracy = 6.4E-12, # of iterations =  42

     total cpu time spent up to now is   205234.8 secs

     per-process dynamical memory:   227.0 Mb

     Self-consistent Calculation

     iteration #  1     ecut=    50.00 Ry     beta= 0.70
     Davidson diagonalization with overlap
     ethr =  1.00E-06,  avg # of iterations =  7.0

     negative rho (up, down):  4.934E-04 0.000E+00

     add environment contribution to local potential
     Polarization accuracy = 6.9E-12, # of iterations =  42

     total cpu time spent up to now is   205365.9 secs

     total energy              =   -3435.10465861 Ry
     estimated scf accuracy    <       0.00925156 Ry
     electrostatic embedding   =      -0.05240822 Ry
     cavitation energy         =       0.02066030 Ry
     PV energy                 =      -0.08089922 Ry
     correction to one-el term =     188.94505684 Ry

     iteration #  2     ecut=    50.00 Ry     beta= 0.70
     Davidson diagonalization with overlap
     ethr =  2.53E-06,  avg # of iterations =  3.0

     negative rho (up, down):  6.619E-04 0.000E+00

     add environment contribution to local potential
     Polarization accuracy = 7.9E-12, # of iterations =  42

     total cpu time spent up to now is   205514.5 secs

     total energy              =   -3435.10551186 Ry
     estimated scf accuracy    <       0.00641394 Ry
     electrostatic embedding   =      -0.05233479 Ry
     cavitation energy         =       0.02073106 Ry
     PV energy                 =      -0.08089278 Ry
     correction to one-el term =     188.75780358 Ry

     iteration #  3     ecut=    50.00 Ry     beta= 0.70
     Davidson diagonalization with overlap
     ethr =  1.75E-06,  avg # of iterations =  2.0

     negative rho (up, down):  8.837E-04 0.000E+00

     add environment contribution to local potential
     Polarization accuracy = 5.9E-12, # of iterations =  42

     total cpu time spent up to now is   205658.1 secs

     total energy              =   -3435.10580415 Ry
     estimated scf accuracy    <       0.00419179 Ry
     electrostatic embedding   =      -0.05230104 Ry
     cavitation energy         =       0.02076053 Ry
     PV energy                 =      -0.08089311 Ry
     correction to one-el term =     188.67352281 Ry

     iteration #  4     ecut=    50.00 Ry     beta= 0.70
     Davidson diagonalization with overlap
     ethr =  1.15E-06,  avg # of iterations =  2.0

     negative rho (up, down):  1.022E-03 0.000E+00

     add environment contribution to local potential
     Polarization accuracy = 5.9E-12, # of iterations =  42

     total cpu time spent up to now is   205823.0 secs

     total energy              =   -3435.10607632 Ry
     estimated scf accuracy    <       0.00060715 Ry
     electrostatic embedding   =      -0.05231592 Ry
     cavitation energy         =       0.02080139 Ry
     PV energy                 =      -0.08089071 Ry
     correction to one-el term =     188.55827701 Ry

     iteration #  5     ecut=    50.00 Ry     beta= 0.70
     Davidson diagonalization with overlap
     ethr =  1.66E-07,  avg # of iterations =  2.0

     negative rho (up, down):  9.746E-04 0.000E+00

     add environment contribution to local potential
     Polarization accuracy = 6.7E-12, # of iterations =  42

     total cpu time spent up to now is   205957.9 secs

     total energy              =   -3435.10617687 Ry
     estimated scf accuracy    <       0.00011302 Ry
     electrostatic embedding   =      -0.05243598 Ry
     cavitation energy         =       0.02084565 Ry
     PV energy                 =      -0.08088457 Ry
     correction to one-el term =     188.44384977 Ry

     iteration #  6     ecut=    50.00 Ry     beta= 0.70
     Davidson diagonalization with overlap
     ethr =  3.09E-08,  avg # of iterations =  2.0

     negative rho (up, down):  8.406E-04 0.000E+00

     add environment contribution to local potential
     Polarization accuracy = 5.5E-12, # of iterations =  42

     total cpu time spent up to now is   206094.2 secs

     total energy              =   -3435.10618497 Ry
     estimated scf accuracy    <       0.00007201 Ry
     electrostatic embedding   =      -0.05244673 Ry
     cavitation energy         =       0.02085497 Ry
     PV energy                 =      -0.08088500 Ry
     correction to one-el term =     188.40907191 Ry

     iteration #  7     ecut=    50.00 Ry     beta= 0.70
     Davidson diagonalization with overlap
     ethr =  1.97E-08,  avg # of iterations =  2.0

     negative rho (up, down):  7.180E-04 0.000E+00

     add environment contribution to local potential
     Polarization accuracy = 5.7E-12, # of iterations =  42

     total cpu time spent up to now is   206233.8 secs

     total energy              =   -3435.10619432 Ry
     estimated scf accuracy    <       0.00001601 Ry
     electrostatic embedding   =      -0.05248832 Ry
     cavitation energy         =       0.02087279 Ry
     PV energy                 =      -0.08088513 Ry
     correction to one-el term =     188.34595065 Ry

     iteration #  8     ecut=    50.00 Ry     beta= 0.70
     Davidson diagonalization with overlap
     ethr =  4.37E-09,  avg # of iterations =  2.0

     negative rho (up, down):  6.380E-04 0.000E+00

     add environment contribution to local potential
     Polarization accuracy = 5.9E-12, # of iterations =  41

     total cpu time spent up to now is   206360.9 secs

     total energy              =   -3435.10619864 Ry
     estimated scf accuracy    <       0.00000754 Ry
     electrostatic embedding   =      -0.05251689 Ry
     cavitation energy         =       0.02088294 Ry
     PV energy                 =      -0.08088558 Ry
     correction to one-el term =     188.30707330 Ry

     iteration #  9     ecut=    50.00 Ry     beta= 0.70
     Davidson diagonalization with overlap
     ethr =  2.06E-09,  avg # of iterations =  1.0

     negative rho (up, down):  4.914E-04 0.000E+00

     add environment contribution to local potential
     Polarization accuracy = 5.9E-12, # of iterations =  42

     total cpu time spent up to now is   206509.5 secs

     total energy              =   -3435.10619869 Ry
     estimated scf accuracy    <       0.00000343 Ry
     electrostatic embedding   =      -0.05252468 Ry
     cavitation energy         =       0.02088604 Ry
     PV energy                 =      -0.08088625 Ry
     correction to one-el term =     188.29285246 Ry

     iteration # 10     ecut=    50.00 Ry     beta= 0.70
     Davidson diagonalization with overlap
     ethr =  9.37E-10,  avg # of iterations =  2.0

     negative rho (up, down):  3.312E-04 0.000E+00

     add environment contribution to local potential
     Polarization accuracy = 6.5E-12, # of iterations =  42

     total cpu time spent up to now is   206647.3 secs

     total energy              =   -3435.10619865 Ry
     estimated scf accuracy    <       0.00000301 Ry
     electrostatic embedding   =      -0.05252750 Ry
     cavitation energy         =       0.02088805 Ry
     PV energy                 =      -0.08088804 Ry
     correction to one-el term =     188.27838303 Ry

     iteration # 11     ecut=    50.00 Ry     beta= 0.70
     Davidson diagonalization with overlap
     ethr =  8.22E-10,  avg # of iterations =  1.0

     negative rho (up, down):  2.972E-04 0.000E+00

     add environment contribution to local potential
     Polarization accuracy = 6.7E-12, # of iterations =  42

     total cpu time spent up to now is   206783.2 secs

     total energy              =   -3435.10619850 Ry
     estimated scf accuracy    <       0.00000123 Ry
     electrostatic embedding   =      -0.05252237 Ry
     cavitation energy         =       0.02088859 Ry
     PV energy                 =      -0.08089057 Ry
     correction to one-el term =     188.26876749 Ry

     iteration # 12     ecut=    50.00 Ry     beta= 0.70
     Davidson diagonalization with overlap
     ethr =  3.35E-10,  avg # of iterations =  1.0

     negative rho (up, down):  1.901E-04 0.000E+00

     add environment contribution to local potential
     Polarization accuracy = 5.4E-12, # of iterations =  42

     total cpu time spent up to now is   206920.1 secs

     total energy              =   -3435.10619839 Ry
     estimated scf accuracy    <       0.00000159 Ry
     electrostatic embedding   =      -0.05251903 Ry
     cavitation energy         =       0.02088868 Ry
     PV energy                 =      -0.08089142 Ry
     correction to one-el term =     188.26712572 Ry

     iteration # 13     ecut=    50.00 Ry     beta= 0.70
     Davidson diagonalization with overlap
     ethr =  3.35E-10,  avg # of iterations =  2.0

     negative rho (up, down):  1.779E-04 0.000E+00

     add environment contribution to local potential
     Polarization accuracy = 6.8E-12, # of iterations =  42

     total cpu time spent up to now is   207045.6 secs

     total energy              =   -3435.10619767 Ry
     estimated scf accuracy    <       0.00000023 Ry
     electrostatic embedding   =      -0.05250685 Ry
     cavitation energy         =       0.02088753 Ry
     PV energy                 =      -0.08089405 Ry
     correction to one-el term =     188.26555740 Ry

     iteration # 14     ecut=    50.00 Ry     beta= 0.70
     Davidson diagonalization with overlap
     ethr =  6.25E-11,  avg # of iterations =  1.0

     negative rho (up, down):  1.535E-04 0.000E+00

     add environment contribution to local potential
     Polarization accuracy = 9.5E-12, # of iterations =  41

     total cpu time spent up to now is   207169.8 secs

     total energy              =   -3435.10619761 Ry
     estimated scf accuracy    <       0.00000019 Ry
     electrostatic embedding   =      -0.05250178 Ry
     cavitation energy         =       0.02088705 Ry
     PV energy                 =      -0.08089461 Ry
     correction to one-el term =     188.26717763 Ry

     iteration # 15     ecut=    50.00 Ry     beta= 0.70
     Davidson diagonalization with overlap
     ethr =  5.33E-11,  avg # of iterations =  1.0

     negative rho (up, down):  1.418E-04 0.000E+00

     add environment contribution to local potential
     Polarization accuracy = 5.5E-12, # of iterations =  42

     total cpu time spent up to now is   207293.1 secs

     total energy              =   -3435.10619754 Ry
     estimated scf accuracy    <       0.00000006 Ry
     electrostatic embedding   =      -0.05249840 Ry
     cavitation energy         =       0.02088712 Ry
     PV energy                 =      -0.08089538 Ry
     correction to one-el term =     188.26636843 Ry

     iteration # 16     ecut=    50.00 Ry     beta= 0.70
     Davidson diagonalization with overlap
     ethr =  1.54E-11,  avg # of iterations =  1.0

     negative rho (up, down):  1.449E-04 0.000E+00

     add environment contribution to local potential
     Polarization accuracy = 5.4E-12, # of iterations =  42
