
     Program PWSCF v.7.2 starts on 20Jul2023 at 14:58:37 
        Git branch: heads/qe-7.2
        Last git commit: b4c5e8deeb7d1863e7553a87b45f8d22c21926a5
        Last git commit date: Mon Mar 27 16:12:09 2023 +0000
        Last git commit subject: Merge branch 'merge_fix_hubbard' into 'develop'

     This program is part of the open-source Quantum ESPRESSO suite
     for quantum simulation of materials; please cite
         "P. Giannozzi et al., J. Phys.:Condens. Matter 21 395502 (2009);
         "P. Giannozzi et al., J. Phys.:Condens. Matter 29 465901 (2017);
         "P. Giannozzi et al., J. Chem. Phys. 152 154105 (2020);
          URL http://www.quantum-espresso.org", 
     in publications or presentations arising from this work. More details at
     http://www.quantum-espresso.org/quote

     Parallel version (MPI), running on    20 processors

     MPI processes distributed on     1 nodes
     112493 MiB available memory on the printing compute node when the environment starts
 
     Reading input from RuO2-110-0-0125.in

     Current dimensions of program PWSCF are:
     Max number of different atomic species (ntypx) = 10
     Max number of k-points (npk) =  40000
     Max angular momentum in pseudopotentials (lmaxx) =  4
 
     Reading input from environ.in:
     * Environ restarting
     * setting up water environment
     * using electronic solvent mode
     * setting boundary derivatives method to SCCS default
     
     file O.pbe-n-kjpaw_psl.0.1.UPF: wavefunction(s)  2P renormalized
     Message from routine setup:
     using ibrav=0 with symmetry is DISCOURAGED, use correct ibrav instead
 
     R & G space division:  proc/nbgrp/npool/nimage =      20
     Subspace diagonalization in iterative solution of the eigenvalue problem:
     one sub-group per band group will be used
     scalapack distributed-memory algorithm (size of sub-group:  2*  2 procs)

 
     Parallelization info
     --------------------
     sticks:   dense  smooth     PW     G-vecs:    dense   smooth      PW
     Min         282     113     29                56190    14217    1913
     Max         283     114     30                56201    14227    1932
     Sum        5657    2263    593              1123933   284439   38425
 
     Using Slab Decomposition
 


     bravais-lattice index     =            0
     lattice parameter (alat)  =      12.1041  a.u.
     unit-cell volume          =    5954.5483 (a.u.)^3
     number of atoms/cell      =           48
     number of atomic types    =            3
     number of electrons       =       368.00
     number of Kohn-Sham states=          221
     kinetic-energy cutoff     =      50.0000  Ry
     charge density cutoff     =     500.0000  Ry
     scf convergence threshold =      1.0E-09
     mixing beta               =       0.7000
     number of iterations used =            8  local-TF  mixing
     energy convergence thresh.=      1.0E-04
     force convergence thresh. =      1.0E-04
     Exchange-correlation= PBE
                           (   1   4   3   4   0   0   0)
     nstep                     =          200


     ================================================================================
 
                                  Environ Setup Summary

     ================================================================================
 
     Please cite

          O. Andreussi, I. Dabo and N. Marzari, J. Chem. Phys. 136, 064102 (2012)

     in publications or presentations arising from this work.

     ================================================================================
 
     Parameters
     ==========

     compensation onset threshold      =               0.1000E+00
     static permittivity               =                    78.30
     surface tension in input (dyn/cm) =                    47.90
     surface tension in internal units =               0.6153E-04
     external pressure in input (GPa)  =                    -0.36
     external pressure in inter. units =              -0.2447E-04

     Solvent Boundary
     ================

     solvent mode                      =               electronic
     derivatives method                =                    chain
     numerical core for derivatives    =                      fft
     switching function adopted        =                     SCCS
     density limit for vacuum region   =               0.5000E-02
     density limit for bulk solvent    =               0.1000E-03

     Electrostatic Setup
     ===================

     electrostatic problem to solve    =              generalized
     numerical solver adopted          =                       cg
     type of auxiliary density adopted =                     none
     numerical core for poisson        =                      fft
     type of pbc corrections           =                parabolic
     numerical core for corrections    =                      1da

     ================================================================================
 

     celldm(1)=  12.104053  celldm(2)=   0.000000  celldm(3)=   0.000000
     celldm(4)=   0.000000  celldm(5)=   0.000000  celldm(6)=   0.000000

     crystal axes: (cart. coord. in units of alat)
               a(1) = (   1.000000   0.000000   0.000000 )  
               a(2) = (   0.000000   0.971735   0.000000 )  
               a(3) = (   0.000000   0.000000   3.455479 )  

     reciprocal axes: (cart. coord. in units 2 pi/alat)
               b(1) = (  1.000000  0.000000  0.000000 )  
               b(2) = (  0.000000  1.029087  0.000000 )  
               b(3) = (  0.000000  0.000000  0.289395 )  


     PseudoPot. # 1 for O  read from file:
     /gpfs/group/ixd4/default/Simon/pseudopotentials/materialscloud/SSSP_1.3.0_PBE_efficiency/O.pbe-n-kjpaw_psl.0.1.UPF
     MD5 check sum: 0234752ac141de4415c5fc33072bef88
     Pseudo is Projector augmented-wave + core cor, Zval =  6.0
     Generated using "atomic" code by A. Dal Corso  v.5.0.99 svn rev. 10869
     Shape of augmentation charge: BESSEL
     Using radial grid of 1095 points,  4 beta functions with: 
                l(1) =   0
                l(2) =   0
                l(3) =   1
                l(4) =   1
     Q(r) pseudized with 0 coefficients 


     PseudoPot. # 2 for Ru read from file:
     /gpfs/group/ixd4/default/Simon/pseudopotentials/materialscloud/SSSP_1.3.0_PBE_efficiency/Ru_ONCV_PBE-1.0.oncvpsp.upf
     MD5 check sum: be037bb81c227cfb9b1461a9f099f4bd
     Pseudo is Norm-conserving, Zval = 16.0
     Generated using ONCVPSP code by D. R. Hamann
     Using radial grid of 1458 points,  6 beta functions with: 
                l(1) =   0
                l(2) =   0
                l(3) =   1
                l(4) =   1
                l(5) =   2
                l(6) =   2

     PseudoPot. # 3 for H  read from file:
     /gpfs/group/ixd4/default/Simon/pseudopotentials/materialscloud/SSSP_1.3.0_PBE_efficiency/H.pbe-rrkjus_psl.1.0.0.UPF
     MD5 check sum: f52b6d4d1c606e5624b1dc7b2218f220
     Pseudo is Ultrasoft, Zval =  1.0
     Generated using "atomic" code by A. Dal Corso  v.5.1
     Using radial grid of  929 points,  2 beta functions with: 
                l(1) =   0
                l(2) =   0
     Q(r) pseudized with 0 coefficients 


     atomic species   valence    mass     pseudopotential
        O              6.00    15.99940     O ( 1.00)
        Ru            16.00   101.07000     Ru( 1.00)
        H              1.00     1.00794     H ( 1.00)

      4 Sym. Ops. (no inversion) found ( 2 have fractional translation)



   Cartesian axes

     site n.     atom                  positions (alat units)
         1           O   tau(   1) = (   0.0000000   0.4858677   0.9012202  )
         2           O   tau(   2) = (   0.5000000   0.4858677   0.9012202  )
         3           O   tau(   3) = (   0.0000000   0.0000000   1.0164846  )
         4           O   tau(   4) = (   0.5000000   0.0000000   1.0164846  )
         5           Ru  tau(   5) = (   0.2500000   0.0000000   1.2151470  )
         6           Ru  tau(   6) = (   0.7500000   0.0000000   1.2151470  )
         7           O   tau(   7) = (   0.2500000   0.2975600   1.2151470  )
         8           O   tau(   8) = (   0.7500000   0.2975600   1.2151470  )
         9           Ru  tau(   9) = (   0.0000000   0.4858677   1.2151470  )
        10           Ru  tau(  10) = (   0.5000000   0.4858677   1.2151470  )
        11           O   tau(  11) = (   0.2500000   0.6741754   1.2151470  )
        12           O   tau(  12) = (   0.7500000   0.6741754   1.2151470  )
        13           O   tau(  13) = (   0.0000000   0.0000000   1.4138129  )
        14           O   tau(  14) = (   0.5000000   0.0000000   1.4138129  )
        15           O   tau(  15) = (   0.0000000   0.4858677   1.5290773  )
        16           O   tau(  16) = (   0.5000000   0.4858677   1.5290773  )
        17           Ru  tau(  17) = (   0.0000000   0.0000000   1.7277432  )
        18           Ru  tau(  18) = (   0.5000000   0.0000000   1.7277432  )
        19           O   tau(  19) = (   0.2500000   0.1883077   1.7277432  )
        20           O   tau(  20) = (   0.7500000   0.1883077   1.7277432  )
        21           Ru  tau(  21) = (   0.2500000   0.4858677   1.7277432  )
        22           Ru  tau(  22) = (   0.7500000   0.4858677   1.7277432  )
        23           O   tau(  23) = (   0.2500000   0.7834286   1.7277432  )
        24           O   tau(  24) = (   0.7500000   0.7834286   1.7277432  )
        25           O   tau(  25) = (   0.0000000   0.4858677   1.9264056  )
        26           O   tau(  26) = (   0.5000000   0.4858677   1.9264056  )
        27           O   tau(  27) = (   0.0000000   0.0000000   2.0416701  )
        28           O   tau(  28) = (   0.5000000   0.0000000   2.0416701  )
        29           Ru  tau(  29) = (   0.2500000   0.0000000   2.2403359  )
        30           Ru  tau(  30) = (   0.7500000   0.0000000   2.2403359  )
        31           O   tau(  31) = (   0.2500000   0.2975600   2.2403359  )
        32           O   tau(  32) = (   0.7500000   0.2975600   2.2403359  )
        33           Ru  tau(  33) = (   0.0000000   0.4858677   2.2403359  )
        34           Ru  tau(  34) = (   0.5000000   0.4858677   2.2403359  )
        35           O   tau(  35) = (   0.2500000   0.6741754   2.2403359  )
        36           O   tau(  36) = (   0.7500000   0.6741754   2.2403359  )
        37           O   tau(  37) = (   0.0000000   0.0000000   2.4390018  )
        38           O   tau(  38) = (   0.5000000   0.0000000   2.4390018  )
        39           O   tau(  39) = (   0.0000000   0.4858677   2.5542628  )
        40           O   tau(  40) = (   0.5000000   0.4858677   2.5542628  )
        41           H   tau(  41) = (   0.1176350   0.4858677   0.7841278  )
        42           H   tau(  42) = (   0.1176350   0.4858677   2.6713517  )
        43           H   tau(  43) = (   0.6176350   0.4858677   0.7841278  )
        44           H   tau(  44) = (   0.6176350   0.4858677   2.6713517  )
        45           H   tau(  45) = (   0.0000000   0.1109877   0.8993887  )
        46           H   tau(  46) = (   0.0000000   0.1109877   2.5560908  )
        47           H   tau(  47) = (   0.5000000   0.8607477   0.8993887  )
        48           H   tau(  48) = (   0.5000000   0.8607477   2.5560908  )

     number of k points=     1  Marzari-Vanderbilt smearing, width (Ry)=  0.0300
                       cart. coord. in units 2pi/alat
        k(    1) = (   0.2500000   0.2572717   0.0000000), wk =   2.0000000

     Dense  grid:  1123933 G-vectors     FFT dimensions: (  90,  90, 300)

     Smooth grid:   284439 G-vectors     FFT dimensions: (  60,  54, 192)

     Estimated max dynamical RAM per process >     173.06 MB

     Estimated total dynamical RAM >       3.38 GB

     Check: negative core charge=   -0.000001

     Initial potential from superposition of free atoms

     starting charge     367.9933, renormalised to     368.0000

     add environment contribution to local potential
     Polarization accuracy = 7.6E-12, # of iterations =  21

     negative rho (up, down):  1.703E-05 0.000E+00
     Starting wfcs are  240 randomized atomic wfcs
     Checking if some PAW data can be deallocated... 

     total cpu time spent up to now is      915.1 secs

     per-process dynamical memory:   145.4 Mb

     Self-consistent Calculation

     iteration #  1     ecut=    50.00 Ry     beta= 0.70
     Davidson diagonalization with overlap
     ethr =  1.00E-02,  avg # of iterations =  2.0

     negative rho (up, down):  2.272E-08 0.000E+00

     total cpu time spent up to now is     1218.8 secs

     total energy              =   -3435.38716707 Ry
     estimated scf accuracy    <       9.17014499 Ry
     electrostatic embedding   =      -0.00212567 Ry
     cavitation energy         =       0.02085546 Ry
     PV energy                 =      -0.09153952 Ry
     correction to one-el term =     218.54259446 Ry

     iteration #  2     ecut=    50.00 Ry     beta= 0.70
     Davidson diagonalization with overlap
     ethr =  2.49E-03,  avg # of iterations =  2.0

     total cpu time spent up to now is     1516.5 secs

     total energy              =   -3437.42738936 Ry
     estimated scf accuracy    <       2.85972198 Ry
     electrostatic embedding   =      -0.00346036 Ry
     cavitation energy         =       0.02056503 Ry
     PV energy                 =      -0.09301131 Ry
     correction to one-el term =     218.54709770 Ry

     iteration #  3     ecut=    50.00 Ry     beta= 0.70
     Davidson diagonalization with overlap
     ethr =  7.77E-04,  avg # of iterations =  2.0

     total cpu time spent up to now is     1832.1 secs

     total energy              =   -3437.63570445 Ry
     estimated scf accuracy    <       0.41621254 Ry
     electrostatic embedding   =      -0.00394388 Ry
     cavitation energy         =       0.02048951 Ry
     PV energy                 =      -0.09323892 Ry
     correction to one-el term =     218.54849308 Ry

     iteration #  4     ecut=    50.00 Ry     beta= 0.70
     Davidson diagonalization with overlap
     ethr =  1.13E-04,  avg # of iterations =  5.0

     total cpu time spent up to now is     2132.0 secs

     total energy              =   -3437.64615612 Ry
     estimated scf accuracy    <       0.97534532 Ry
     electrostatic embedding   =      -0.00416524 Ry
     cavitation energy         =       0.02059893 Ry
     PV energy                 =      -0.09274757 Ry
     correction to one-el term =     218.54877532 Ry

     iteration #  5     ecut=    50.00 Ry     beta= 0.70
     Davidson diagonalization with overlap
     ethr =  1.13E-04,  avg # of iterations =  1.0

     total cpu time spent up to now is     2471.6 secs

     total energy              =   -3437.64860610 Ry
     estimated scf accuracy    <       0.24029277 Ry
     electrostatic embedding   =      -0.00428553 Ry
     cavitation energy         =       0.02079208 Ry
     PV energy                 =      -0.09213638 Ry
     correction to one-el term =     218.54876918 Ry

     iteration #  6     ecut=    50.00 Ry     beta= 0.70
     Davidson diagonalization with overlap
     ethr =  6.53E-05,  avg # of iterations =  3.0

     total cpu time spent up to now is     2712.4 secs

     total energy              =   -3437.63945949 Ry
     estimated scf accuracy    <       0.20278631 Ry
     electrostatic embedding   =      -0.00432437 Ry
     cavitation energy         =       0.02125754 Ry
     PV energy                 =      -0.09069433 Ry
     correction to one-el term =     218.54824516 Ry

     iteration #  7     ecut=    50.00 Ry     beta= 0.70
     Davidson diagonalization with overlap
     ethr =  5.51E-05,  avg # of iterations =  2.0

     total cpu time spent up to now is     2996.3 secs

     total energy              =   -3437.63220949 Ry
     estimated scf accuracy    <       0.14098127 Ry
     electrostatic embedding   =      -0.00403859 Ry
     cavitation energy         =       0.02185811 Ry
     PV energy                 =      -0.08868312 Ry
     correction to one-el term =     218.54670415 Ry

     iteration #  8     ecut=    50.00 Ry     beta= 0.70
     Davidson diagonalization with overlap
     ethr =  3.83E-05,  avg # of iterations =  5.0

     negative rho (up, down):  9.433E-05 0.000E+00

     add environment contribution to local potential
     Polarization accuracy = 8.4E-12, # of iterations =  47

     total cpu time spent up to now is     3247.0 secs

     total energy              =   -3437.62201375 Ry
     estimated scf accuracy    <       0.08502993 Ry
     electrostatic embedding   =      -0.00370307 Ry
     cavitation energy         =       0.02231286 Ry
     PV energy                 =      -0.08726910 Ry
     correction to one-el term =     218.54526517 Ry

     iteration #  9     ecut=    50.00 Ry     beta= 0.70
     Davidson diagonalization with overlap
     ethr =  2.31E-05,  avg # of iterations = 11.0

     negative rho (up, down):  4.385E-03 0.000E+00

     add environment contribution to local potential
     Polarization accuracy = 5.0E-12, # of iterations =  49

     total cpu time spent up to now is     3557.6 secs

     total energy              =   -3437.65694551 Ry
     estimated scf accuracy    <       0.02518705 Ry
     electrostatic embedding   =      -0.04857352 Ry
     cavitation energy         =       0.02252725 Ry
     PV energy                 =      -0.08582688 Ry
     correction to one-el term =     177.82437924 Ry

     iteration # 10     ecut=    50.00 Ry     beta= 0.70
     Davidson diagonalization with overlap
     ethr =  6.84E-06,  avg # of iterations =  2.0

     negative rho (up, down):  1.376E-02 0.000E+00

     add environment contribution to local potential
     Polarization accuracy = 4.7E-12, # of iterations =  49

     total cpu time spent up to now is     3822.6 secs

     total energy              =   -3437.66067421 Ry
     estimated scf accuracy    <       0.02249914 Ry
     electrostatic embedding   =      -0.05168770 Ry
     cavitation energy         =       0.02228149 Ry
     PV energy                 =      -0.08560165 Ry
     correction to one-el term =     177.80284283 Ry

     iteration # 11     ecut=    50.00 Ry     beta= 0.70
     Davidson diagonalization with overlap
     ethr =  6.11E-06,  avg # of iterations =  4.0

     negative rho (up, down):  1.565E-02 0.000E+00

     add environment contribution to local potential
     Polarization accuracy = 4.3E-12, # of iterations =  47

     total cpu time spent up to now is     4116.0 secs

     total energy              =   -3437.66043130 Ry
     estimated scf accuracy    <       0.01731727 Ry
     electrostatic embedding   =      -0.05435118 Ry
     cavitation energy         =       0.02209616 Ry
     PV energy                 =      -0.08548940 Ry
     correction to one-el term =     178.05182571 Ry

     iteration # 12     ecut=    50.00 Ry     beta= 0.70
     Davidson diagonalization with overlap
     ethr =  4.71E-06,  avg # of iterations =  5.0

     negative rho (up, down):  1.557E-03 0.000E+00

     add environment contribution to local potential
     Polarization accuracy = 7.0E-12, # of iterations =  43

     total cpu time spent up to now is     4430.6 secs

     total energy              =   -3437.66206647 Ry
     estimated scf accuracy    <       0.00457888 Ry
     electrostatic embedding   =      -0.05427794 Ry
     cavitation energy         =       0.02159935 Ry
     PV energy                 =      -0.08603957 Ry
     correction to one-el term =     179.64778608 Ry

     iteration # 13     ecut=    50.00 Ry     beta= 0.70
     Davidson diagonalization with overlap
     ethr =  1.24E-06,  avg # of iterations =  6.0

     negative rho (up, down):  1.908E-05 0.000E+00

     add environment contribution to local potential
     Polarization accuracy = 3.5E-12, # of iterations =  43

     total cpu time spent up to now is     4706.5 secs

     total energy              =   -3437.66281380 Ry
     estimated scf accuracy    <       0.00175879 Ry
     electrostatic embedding   =      -0.04980560 Ry
     cavitation energy         =       0.02160224 Ry
     PV energy                 =      -0.08628338 Ry
     correction to one-el term =     180.64811763 Ry

     iteration # 14     ecut=    50.00 Ry     beta= 0.70
     Davidson diagonalization with overlap
     ethr =  4.78E-07,  avg # of iterations =  6.0

     negative rho (up, down):  2.617E-06 0.000E+00

     add environment contribution to local potential
     Polarization accuracy = 8.0E-12, # of iterations =  42

     total cpu time spent up to now is     5009.8 secs

     total energy              =   -3437.66336410 Ry
     estimated scf accuracy    <       0.00085789 Ry
     electrostatic embedding   =      -0.04802252 Ry
     cavitation energy         =       0.02153219 Ry
     PV energy                 =      -0.08647981 Ry
     correction to one-el term =     181.56032507 Ry

     iteration # 15     ecut=    50.00 Ry     beta= 0.70
     Davidson diagonalization with overlap
     ethr =  2.33E-07,  avg # of iterations =  8.0

     negative rho (up, down):  1.654E-04 0.000E+00

     add environment contribution to local potential
     Polarization accuracy = 7.6E-12, # of iterations =  42

     total cpu time spent up to now is     5304.5 secs

     total energy              =   -3437.66366609 Ry
     estimated scf accuracy    <       0.00018959 Ry
     electrostatic embedding   =      -0.04631631 Ry
     cavitation energy         =       0.02152618 Ry
     PV energy                 =      -0.08656314 Ry
     correction to one-el term =     182.77719295 Ry

     iteration # 16     ecut=    50.00 Ry     beta= 0.70
     Davidson diagonalization with overlap
     ethr =  5.15E-08,  avg # of iterations =  7.0

     negative rho (up, down):  3.034E-04 0.000E+00

     add environment contribution to local potential
     Polarization accuracy = 7.8E-12, # of iterations =  42

     total cpu time spent up to now is     5606.1 secs

     total energy              =   -3437.66370002 Ry
     estimated scf accuracy    <       0.00000989 Ry
     electrostatic embedding   =      -0.04553622 Ry
     cavitation energy         =       0.02153066 Ry
     PV energy                 =      -0.08659192 Ry
     correction to one-el term =     183.11259768 Ry

     iteration # 17     ecut=    50.00 Ry     beta= 0.70
     Davidson diagonalization with overlap
     ethr =  2.69E-09,  avg # of iterations =  2.0

     negative rho (up, down):  1.590E-04 0.000E+00

     add environment contribution to local potential
     Polarization accuracy = 8.1E-12, # of iterations =  42

     total cpu time spent up to now is     5918.5 secs

     total energy              =   -3437.66370571 Ry
     estimated scf accuracy    <       0.00000303 Ry
     electrostatic embedding   =      -0.04527932 Ry
     cavitation energy         =       0.02153381 Ry
     PV energy                 =      -0.08659422 Ry
     correction to one-el term =     183.22260960 Ry

     iteration # 18     ecut=    50.00 Ry     beta= 0.70
     Davidson diagonalization with overlap
     ethr =  8.23E-10,  avg # of iterations =  3.0

     negative rho (up, down):  1.869E-04 0.000E+00

     add environment contribution to local potential
     Polarization accuracy = 7.7E-12, # of iterations =  42

     total cpu time spent up to now is     6213.0 secs

     total energy              =   -3437.66370763 Ry
     estimated scf accuracy    <       0.00000172 Ry
     electrostatic embedding   =      -0.04514516 Ry
     cavitation energy         =       0.02153485 Ry
     PV energy                 =      -0.08659422 Ry
     correction to one-el term =     183.26772102 Ry

     iteration # 19     ecut=    50.00 Ry     beta= 0.70
     Davidson diagonalization with overlap
     ethr =  4.66E-10,  avg # of iterations =  2.0

     negative rho (up, down):  2.105E-04 0.000E+00

     add environment contribution to local potential
     Polarization accuracy = 7.5E-12, # of iterations =  42

     total cpu time spent up to now is     6528.9 secs

     total energy              =   -3437.66370835 Ry
     estimated scf accuracy    <       0.00000064 Ry
     electrostatic embedding   =      -0.04506352 Ry
     cavitation energy         =       0.02153130 Ry
     PV energy                 =      -0.08660099 Ry
     correction to one-el term =     183.28930851 Ry

     iteration # 20     ecut=    50.00 Ry     beta= 0.70
     Davidson diagonalization with overlap
     ethr =  1.75E-10,  avg # of iterations =  2.0

     negative rho (up, down):  1.364E-04 0.000E+00

     add environment contribution to local potential
     Polarization accuracy = 7.7E-12, # of iterations =  42

     total cpu time spent up to now is     6846.9 secs

     total energy              =   -3437.66370892 Ry
     estimated scf accuracy    <       0.00000032 Ry
     electrostatic embedding   =      -0.04501600 Ry
     cavitation energy         =       0.02152861 Ry
     PV energy                 =      -0.08660424 Ry
     correction to one-el term =     183.30325907 Ry

     iteration # 21     ecut=    50.00 Ry     beta= 0.70
     Davidson diagonalization with overlap
     ethr =  8.80E-11,  avg # of iterations =  2.0

     negative rho (up, down):  1.194E-04 0.000E+00

     add environment contribution to local potential
     Polarization accuracy = 7.7E-12, # of iterations =  42

     total cpu time spent up to now is     7121.4 secs

     total energy              =   -3437.66370974 Ry
     estimated scf accuracy    <       0.00000025 Ry
     electrostatic embedding   =      -0.04502389 Ry
     cavitation energy         =       0.02152738 Ry
     PV energy                 =      -0.08660177 Ry
     correction to one-el term =     183.30150558 Ry

     iteration # 22     ecut=    50.00 Ry     beta= 0.70
     Davidson diagonalization with overlap
     ethr =  6.67E-11,  avg # of iterations =  2.0

     negative rho (up, down):  1.139E-04 0.000E+00

     add environment contribution to local potential
     Polarization accuracy = 7.6E-12, # of iterations =  42

     total cpu time spent up to now is     7434.7 secs

     total energy              =   -3437.66371028 Ry
     estimated scf accuracy    <       0.00000017 Ry
     electrostatic embedding   =      -0.04502768 Ry
     cavitation energy         =       0.02152704 Ry
     PV energy                 =      -0.08660088 Ry
     correction to one-el term =     183.29979434 Ry

     iteration # 23     ecut=    50.00 Ry     beta= 0.70
     Davidson diagonalization with overlap
     ethr =  4.74E-11,  avg # of iterations =  1.0

     negative rho (up, down):  1.149E-04 0.000E+00

     add environment contribution to local potential
     Polarization accuracy = 7.5E-12, # of iterations =  42

     total cpu time spent up to now is     7718.6 secs

     total energy              =   -3437.66371080 Ry
     estimated scf accuracy    <       0.00000016 Ry
     electrostatic embedding   =      -0.04503209 Ry
     cavitation energy         =       0.02152723 Ry
     PV energy                 =      -0.08659995 Ry
     correction to one-el term =     183.29936712 Ry

     iteration # 24     ecut=    50.00 Ry     beta= 0.70
     Davidson diagonalization with overlap
     ethr =  4.38E-11,  avg # of iterations =  1.0

     negative rho (up, down):  1.115E-04 0.000E+00

     add environment contribution to local potential
     Polarization accuracy = 7.5E-12, # of iterations =  42

     total cpu time spent up to now is     8039.6 secs

     total energy              =   -3437.66371132 Ry
     estimated scf accuracy    <       0.00000016 Ry
     electrostatic embedding   =      -0.04503232 Ry
     cavitation energy         =       0.02152747 Ry
     PV energy                 =      -0.08659993 Ry
     correction to one-el term =     183.29944485 Ry

     iteration # 25     ecut=    50.00 Ry     beta= 0.70
     Davidson diagonalization with overlap
     ethr =  4.21E-11,  avg # of iterations =  1.0

     negative rho (up, down):  1.018E-04 0.000E+00

     add environment contribution to local potential
     Polarization accuracy = 8.4E-12, # of iterations =  42

     total cpu time spent up to now is     8324.7 secs

     total energy              =   -3437.66371194 Ry
     estimated scf accuracy    <       0.00000015 Ry
     electrostatic embedding   =      -0.04503464 Ry
     cavitation energy         =       0.02152754 Ry
     PV energy                 =      -0.08659994 Ry
     correction to one-el term =     183.29854170 Ry

     iteration # 26     ecut=    50.00 Ry     beta= 0.70
     Davidson diagonalization with overlap
     ethr =  4.10E-11,  avg # of iterations =  1.0

     negative rho (up, down):  9.494E-05 0.000E+00

     add environment contribution to local potential
     Polarization accuracy = 9.0E-12, # of iterations =  42

     total cpu time spent up to now is     8626.1 secs

     total energy              =   -3437.66371441 Ry
     estimated scf accuracy    <       0.00000014 Ry
     electrostatic embedding   =      -0.04504475 Ry
     cavitation energy         =       0.02152752 Ry
     PV energy                 =      -0.08659983 Ry
     correction to one-el term =     183.29523753 Ry

     iteration # 27     ecut=    50.00 Ry     beta= 0.70
     Davidson diagonalization with overlap
     ethr =  3.94E-11,  avg # of iterations =  2.0

     negative rho (up, down):  9.642E-05 0.000E+00

     add environment contribution to local potential
     Polarization accuracy = 9.1E-12, # of iterations =  42

     total cpu time spent up to now is     8948.4 secs

     total energy              =   -3437.66371973 Ry
     estimated scf accuracy    <       0.00000013 Ry
     electrostatic embedding   =      -0.04504919 Ry
     cavitation energy         =       0.02152762 Ry
     PV energy                 =      -0.08660027 Ry
     correction to one-el term =     183.29326441 Ry

     iteration # 28     ecut=    50.00 Ry     beta= 0.70
     Davidson diagonalization with overlap
     ethr =  3.47E-11,  avg # of iterations =  2.0

     negative rho (up, down):  1.022E-04 0.000E+00

     add environment contribution to local potential
     Polarization accuracy = 9.2E-12, # of iterations =  42

     total cpu time spent up to now is     9228.6 secs

     total energy              =   -3437.66372482 Ry
     estimated scf accuracy    <       0.00000012 Ry
     electrostatic embedding   =      -0.04505015 Ry
     cavitation energy         =       0.02152756 Ry
     PV energy                 =      -0.08660046 Ry
     correction to one-el term =     183.29244272 Ry

     iteration # 29     ecut=    50.00 Ry     beta= 0.70
     Davidson diagonalization with overlap
     ethr =  3.35E-11,  avg # of iterations =  2.0

     negative rho (up, down):  1.083E-04 0.000E+00

     add environment contribution to local potential
     Polarization accuracy = 9.5E-12, # of iterations =  42

     total cpu time spent up to now is     9491.2 secs

     total energy              =   -3437.66373024 Ry
     estimated scf accuracy    <       0.00000011 Ry
     electrostatic embedding   =      -0.04504416 Ry
     cavitation energy         =       0.02152782 Ry
     PV energy                 =      -0.08660045 Ry
     correction to one-el term =     183.29459371 Ry

     iteration # 30     ecut=    50.00 Ry     beta= 0.70
     Davidson diagonalization with overlap
     ethr =  2.85E-11,  avg # of iterations =  5.0

     negative rho (up, down):  1.081E-04 0.000E+00

     add environment contribution to local potential
     Polarization accuracy = 9.5E-12, # of iterations =  42

     total cpu time spent up to now is     9751.4 secs

     total energy              =   -3437.66373630 Ry
     estimated scf accuracy    <       0.00000010 Ry
     electrostatic embedding   =      -0.04503705 Ry
     cavitation energy         =       0.02152775 Ry
     PV energy                 =      -0.08660001 Ry
     correction to one-el term =     183.29712593 Ry

     iteration # 31     ecut=    50.00 Ry     beta= 0.70
     Davidson diagonalization with overlap
     ethr =  2.70E-11,  avg # of iterations =  1.0

     negative rho (up, down):  1.099E-04 0.000E+00

     add environment contribution to local potential
     Polarization accuracy = 9.5E-12, # of iterations =  42

     total cpu time spent up to now is    10094.7 secs

     total energy              =   -3437.66373713 Ry
     estimated scf accuracy    <       0.00000010 Ry
     electrostatic embedding   =      -0.04503838 Ry
     cavitation energy         =       0.02152775 Ry
     PV energy                 =      -0.08660004 Ry
     correction to one-el term =     183.29681303 Ry

     iteration # 32     ecut=    50.00 Ry     beta= 0.70
     Davidson diagonalization with overlap
     ethr =  2.61E-11,  avg # of iterations =  1.0

     negative rho (up, down):  1.116E-04 0.000E+00

     add environment contribution to local potential
     Polarization accuracy = 9.5E-12, # of iterations =  42

     total cpu time spent up to now is    10410.0 secs

     total energy              =   -3437.66373859 Ry
     estimated scf accuracy    <       0.00000009 Ry
     electrostatic embedding   =      -0.04503656 Ry
     cavitation energy         =       0.02152761 Ry
     PV energy                 =      -0.08659992 Ry
     correction to one-el term =     183.29765152 Ry

     iteration # 33     ecut=    50.00 Ry     beta= 0.70
     Davidson diagonalization with overlap
     ethr =  2.54E-11,  avg # of iterations =  1.0

     negative rho (up, down):  1.121E-04 0.000E+00

     add environment contribution to local potential
     Polarization accuracy = 9.5E-12, # of iterations =  42

     total cpu time spent up to now is    10741.7 secs

     total energy              =   -3437.66373875 Ry
     estimated scf accuracy    <       0.00000009 Ry
     electrostatic embedding   =      -0.04503551 Ry
     cavitation energy         =       0.02152753 Ry
     PV energy                 =      -0.08660001 Ry
     correction to one-el term =     183.29807286 Ry

     iteration # 34     ecut=    50.00 Ry     beta= 0.70
     Davidson diagonalization with overlap
     ethr =  2.54E-11,  avg # of iterations =  1.0

     negative rho (up, down):  1.128E-04 0.000E+00

     add environment contribution to local potential
     Polarization accuracy = 9.5E-12, # of iterations =  42

     total cpu time spent up to now is    11071.2 secs

     total energy              =   -3437.66373879 Ry
     estimated scf accuracy    <       0.00000009 Ry
     electrostatic embedding   =      -0.04503531 Ry
     cavitation energy         =       0.02152748 Ry
     PV energy                 =      -0.08660007 Ry
     correction to one-el term =     183.29817624 Ry

     iteration # 35     ecut=    50.00 Ry     beta= 0.70
     Davidson diagonalization with overlap
     ethr =  2.54E-11,  avg # of iterations =  1.0

     negative rho (up, down):  1.131E-04 0.000E+00

     add environment contribution to local potential
     Polarization accuracy = 9.5E-12, # of iterations =  42

     total cpu time spent up to now is    11400.0 secs

     total energy              =   -3437.66373884 Ry
     estimated scf accuracy    <       0.00000009 Ry
     electrostatic embedding   =      -0.04503475 Ry
     cavitation energy         =       0.02152748 Ry
     PV energy                 =      -0.08660011 Ry
     correction to one-el term =     183.29836392 Ry

     iteration # 36     ecut=    50.00 Ry     beta= 0.70
     Davidson diagonalization with overlap
     ethr =  2.54E-11,  avg # of iterations =  1.0

     negative rho (up, down):  1.131E-04 0.000E+00

     add environment contribution to local potential
     Polarization accuracy = 9.5E-12, # of iterations =  42

     total cpu time spent up to now is    11614.7 secs

     total energy              =   -3437.66373881 Ry
     estimated scf accuracy    <       0.00000009 Ry
     electrostatic embedding   =      -0.04503455 Ry
     cavitation energy         =       0.02152745 Ry
     PV energy                 =      -0.08660015 Ry
     correction to one-el term =     183.29844790 Ry

     iteration # 37     ecut=    50.00 Ry     beta= 0.70
     Davidson diagonalization with overlap
     ethr =  2.54E-11,  avg # of iterations =  1.0

     negative rho (up, down):  1.129E-04 0.000E+00

     add environment contribution to local potential
     Polarization accuracy = 9.5E-12, # of iterations =  42

     total cpu time spent up to now is    11750.9 secs

     total energy              =   -3437.66373880 Ry
     estimated scf accuracy    <       0.00000009 Ry
     electrostatic embedding   =      -0.04503441 Ry
     cavitation energy         =       0.02152745 Ry
     PV energy                 =      -0.08660015 Ry
     correction to one-el term =     183.29848482 Ry

     iteration # 38     ecut=    50.00 Ry     beta= 0.70
     Davidson diagonalization with overlap
     ethr =  2.54E-11,  avg # of iterations =  1.0

     negative rho (up, down):  1.127E-04 0.000E+00

     add environment contribution to local potential
     Polarization accuracy = 9.5E-12, # of iterations =  42

     total cpu time spent up to now is    12074.7 secs

     total energy              =   -3437.66373881 Ry
     estimated scf accuracy    <       0.00000009 Ry
     electrostatic embedding   =      -0.04503447 Ry
     cavitation energy         =       0.02152745 Ry
     PV energy                 =      -0.08660015 Ry
     correction to one-el term =     183.29846019 Ry

     iteration # 39     ecut=    50.00 Ry     beta= 0.70
     Davidson diagonalization with overlap
     ethr =  2.54E-11,  avg # of iterations =  1.0

     negative rho (up, down):  1.126E-04 0.000E+00

     add environment contribution to local potential
     Polarization accuracy = 9.5E-12, # of iterations =  42

     total cpu time spent up to now is    12355.5 secs

     total energy              =   -3437.66373877 Ry
     estimated scf accuracy    <       0.00000009 Ry
     electrostatic embedding   =      -0.04503456 Ry
     cavitation energy         =       0.02152745 Ry
     PV energy                 =      -0.08660014 Ry
     correction to one-el term =     183.29842077 Ry

     iteration # 40     ecut=    50.00 Ry     beta= 0.70
     Davidson diagonalization with overlap
     ethr =  2.54E-11,  avg # of iterations =  1.0

     negative rho (up, down):  1.127E-04 0.000E+00

     add environment contribution to local potential
     Polarization accuracy = 9.5E-12, # of iterations =  42

     total cpu time spent up to now is    12687.0 secs

     total energy              =   -3437.66373877 Ry
     estimated scf accuracy    <       0.00000009 Ry
     electrostatic embedding   =      -0.04503455 Ry
     cavitation energy         =       0.02152745 Ry
     PV energy                 =      -0.08660014 Ry
     correction to one-el term =     183.29841939 Ry

     iteration # 41     ecut=    50.00 Ry     beta= 0.70
     Davidson diagonalization with overlap
     ethr =  2.54E-11,  avg # of iterations =  1.0

     negative rho (up, down):  1.127E-04 0.000E+00

     add environment contribution to local potential
     Polarization accuracy = 9.5E-12, # of iterations =  42

     total cpu time spent up to now is    13026.8 secs

     total energy              =   -3437.66373876 Ry
     estimated scf accuracy    <       0.00000009 Ry
     electrostatic embedding   =      -0.04503456 Ry
     cavitation energy         =       0.02152745 Ry
     PV energy                 =      -0.08660014 Ry
     correction to one-el term =     183.29841677 Ry

     iteration # 42     ecut=    50.00 Ry     beta= 0.70
     Davidson diagonalization with overlap
     ethr =  2.54E-11,  avg # of iterations =  1.0

     negative rho (up, down):  1.127E-04 0.000E+00

     add environment contribution to local potential
     Polarization accuracy = 9.5E-12, # of iterations =  42

     total cpu time spent up to now is    13361.5 secs

     total energy              =   -3437.66373876 Ry
     estimated scf accuracy    <       0.00000009 Ry
     electrostatic embedding   =      -0.04503454 Ry
     cavitation energy         =       0.02152745 Ry
     PV energy                 =      -0.08660014 Ry
     correction to one-el term =     183.29842353 Ry

     iteration # 43     ecut=    50.00 Ry     beta= 0.70
     Davidson diagonalization with overlap
     ethr =  2.54E-11,  avg # of iterations =  1.0

     negative rho (up, down):  1.128E-04 0.000E+00

     add environment contribution to local potential
     Polarization accuracy = 9.5E-12, # of iterations =  42

     total cpu time spent up to now is    13639.2 secs

     total energy              =   -3437.66373876 Ry
     estimated scf accuracy    <       0.00000009 Ry
     electrostatic embedding   =      -0.04503453 Ry
     cavitation energy         =       0.02152745 Ry
     PV energy                 =      -0.08660014 Ry
     correction to one-el term =     183.29842699 Ry

     iteration # 44     ecut=    50.00 Ry     beta= 0.70
     Davidson diagonalization with overlap
     ethr =  2.54E-11,  avg # of iterations =  1.0

     negative rho (up, down):  1.128E-04 0.000E+00

     add environment contribution to local potential
     Polarization accuracy = 9.5E-12, # of iterations =  42

     total cpu time spent up to now is    13947.1 secs

     total energy              =   -3437.66373877 Ry
     estimated scf accuracy    <       0.00000009 Ry
     electrostatic embedding   =      -0.04503453 Ry
     cavitation energy         =       0.02152745 Ry
     PV energy                 =      -0.08660014 Ry
     correction to one-el term =     183.29843286 Ry

     iteration # 45     ecut=    50.00 Ry     beta= 0.70
     Davidson diagonalization with overlap
     ethr =  2.54E-11,  avg # of iterations =  1.0

     negative rho (up, down):  1.128E-04 0.000E+00

     add environment contribution to local potential
     Polarization accuracy = 9.5E-12, # of iterations =  42

     total cpu time spent up to now is    14254.4 secs

     total energy              =   -3437.66373878 Ry
     estimated scf accuracy    <       0.00000009 Ry
     electrostatic embedding   =      -0.04503453 Ry
     cavitation energy         =       0.02152745 Ry
     PV energy                 =      -0.08660014 Ry
     correction to one-el term =     183.29843336 Ry

     iteration # 46     ecut=    50.00 Ry     beta= 0.70
     Davidson diagonalization with overlap
     ethr =  2.54E-11,  avg # of iterations =  1.0

     negative rho (up, down):  1.127E-04 0.000E+00

     add environment contribution to local potential
     Polarization accuracy = 9.5E-12, # of iterations =  42

     total cpu time spent up to now is    14548.6 secs

     total energy              =   -3437.66373879 Ry
     estimated scf accuracy    <       0.00000009 Ry
     electrostatic embedding   =      -0.04503454 Ry
     cavitation energy         =       0.02152745 Ry
     PV energy                 =      -0.08660014 Ry
     correction to one-el term =     183.29843187 Ry

     iteration # 47     ecut=    50.00 Ry     beta= 0.70
     Davidson diagonalization with overlap
     ethr =  2.54E-11,  avg # of iterations =  1.0

     negative rho (up, down):  1.127E-04 0.000E+00

     add environment contribution to local potential
     Polarization accuracy = 9.5E-12, # of iterations =  42

     total cpu time spent up to now is    14850.5 secs

     total energy              =   -3437.66373879 Ry
     estimated scf accuracy    <       0.00000009 Ry
     electrostatic embedding   =      -0.04503454 Ry
     cavitation energy         =       0.02152745 Ry
     PV energy                 =      -0.08660014 Ry
     correction to one-el term =     183.29842833 Ry

     iteration # 48     ecut=    50.00 Ry     beta= 0.70
     Davidson diagonalization with overlap
     ethr =  2.54E-11,  avg # of iterations =  1.0

     negative rho (up, down):  1.127E-04 0.000E+00

     add environment contribution to local potential
     Polarization accuracy = 9.5E-12, # of iterations =  42

     total cpu time spent up to now is    15186.7 secs

     total energy              =   -3437.66373879 Ry
     estimated scf accuracy    <       0.00000009 Ry
     electrostatic embedding   =      -0.04503454 Ry
     cavitation energy         =       0.02152745 Ry
     PV energy                 =      -0.08660014 Ry
     correction to one-el term =     183.29842647 Ry

     iteration # 49     ecut=    50.00 Ry     beta= 0.70
     Davidson diagonalization with overlap
     ethr =  2.54E-11,  avg # of iterations =  1.0

     negative rho (up, down):  1.127E-04 0.000E+00

     add environment contribution to local potential
     Polarization accuracy = 9.5E-12, # of iterations =  42

     total cpu time spent up to now is    15507.0 secs

     total energy              =   -3437.66373879 Ry
     estimated scf accuracy    <       0.00000009 Ry
     electrostatic embedding   =      -0.04503455 Ry
     cavitation energy         =       0.02152745 Ry
     PV energy                 =      -0.08660014 Ry
     correction to one-el term =     183.29842604 Ry

     iteration # 50     ecut=    50.00 Ry     beta= 0.70
     Davidson diagonalization with overlap
     ethr =  2.54E-11,  avg # of iterations =  1.0

     negative rho (up, down):  1.127E-04 0.000E+00

     add environment contribution to local potential
     Polarization accuracy = 9.5E-12, # of iterations =  42

     total cpu time spent up to now is    15832.9 secs

     total energy              =   -3437.66373879 Ry
     estimated scf accuracy    <       0.00000009 Ry
     electrostatic embedding   =      -0.04503455 Ry
     cavitation energy         =       0.02152745 Ry
     PV energy                 =      -0.08660014 Ry
     correction to one-el term =     183.29842603 Ry

     iteration # 51     ecut=    50.00 Ry     beta= 0.70
     Davidson diagonalization with overlap
     ethr =  2.54E-11,  avg # of iterations =  1.0

     negative rho (up, down):  1.127E-04 0.000E+00

     add environment contribution to local potential
     Polarization accuracy = 9.5E-12, # of iterations =  42

     total cpu time spent up to now is    16167.6 secs

     total energy              =   -3437.66373879 Ry
     estimated scf accuracy    <       0.00000009 Ry
     electrostatic embedding   =      -0.04503455 Ry
     cavitation energy         =       0.02152745 Ry
     PV energy                 =      -0.08660014 Ry
     correction to one-el term =     183.29842602 Ry

     iteration # 52     ecut=    50.00 Ry     beta= 0.70
     Davidson diagonalization with overlap
     ethr =  2.54E-11,  avg # of iterations =  1.0

     negative rho (up, down):  1.127E-04 0.000E+00

     add environment contribution to local potential
     Polarization accuracy = 9.5E-12, # of iterations =  42

     total cpu time spent up to now is    16455.4 secs

     total energy              =   -3437.66373879 Ry
     estimated scf accuracy    <       0.00000009 Ry
     electrostatic embedding   =      -0.04503455 Ry
     cavitation energy         =       0.02152745 Ry
     PV energy                 =      -0.08660014 Ry
     correction to one-el term =     183.29842603 Ry

     iteration # 53     ecut=    50.00 Ry     beta= 0.70
     Davidson diagonalization with overlap
     ethr =  2.54E-11,  avg # of iterations =  1.0

     negative rho (up, down):  1.127E-04 0.000E+00

     add environment contribution to local potential
     Polarization accuracy = 9.5E-12, # of iterations =  42

     total cpu time spent up to now is    16670.6 secs

     total energy              =   -3437.66373879 Ry
     estimated scf accuracy    <       0.00000009 Ry
     electrostatic embedding   =      -0.04503455 Ry
     cavitation energy         =       0.02152745 Ry
     PV energy                 =      -0.08660014 Ry
     correction to one-el term =     183.29842594 Ry

     iteration # 54     ecut=    50.00 Ry     beta= 0.70
     Davidson diagonalization with overlap
     ethr =  2.54E-11,  avg # of iterations =  1.0

     negative rho (up, down):  1.127E-04 0.000E+00

     add environment contribution to local potential
     Polarization accuracy = 9.5E-12, # of iterations =  42

     total cpu time spent up to now is    16963.8 secs

     total energy              =   -3437.66373879 Ry
     estimated scf accuracy    <       0.00000009 Ry
     electrostatic embedding   =      -0.04503454 Ry
     cavitation energy         =       0.02152745 Ry
     PV energy                 =      -0.08660014 Ry
     correction to one-el term =     183.29842609 Ry

     iteration # 55     ecut=    50.00 Ry     beta= 0.70
     Davidson diagonalization with overlap
     ethr =  2.54E-11,  avg # of iterations =  1.0

     negative rho (up, down):  1.127E-04 0.000E+00

     add environment contribution to local potential
     Polarization accuracy = 9.5E-12, # of iterations =  42

     total cpu time spent up to now is    17226.8 secs

     total energy              =   -3437.66373879 Ry
     estimated scf accuracy    <       0.00000009 Ry
     electrostatic embedding   =      -0.04503454 Ry
     cavitation energy         =       0.02152745 Ry
     PV energy                 =      -0.08660014 Ry
     correction to one-el term =     183.29842609 Ry

     iteration # 56     ecut=    50.00 Ry     beta= 0.70
     Davidson diagonalization with overlap
     ethr =  2.54E-11,  avg # of iterations =  1.0

     negative rho (up, down):  1.127E-04 0.000E+00

     add environment contribution to local potential
     Polarization accuracy = 9.6E-12, # of iterations =  42

     total cpu time spent up to now is    17484.1 secs

     total energy              =   -3437.66373879 Ry
     estimated scf accuracy    <       0.00000009 Ry
     electrostatic embedding   =      -0.04503455 Ry
     cavitation energy         =       0.02152745 Ry
     PV energy                 =      -0.08660014 Ry
     correction to one-el term =     183.29842595 Ry

     iteration # 57     ecut=    50.00 Ry     beta= 0.70
     Davidson diagonalization with overlap
     ethr =  2.54E-11,  avg # of iterations =  1.0

     negative rho (up, down):  1.127E-04 0.000E+00

     add environment contribution to local potential
     Polarization accuracy = 9.5E-12, # of iterations =  42

     total cpu time spent up to now is    17747.5 secs

     total energy              =   -3437.66373879 Ry
     estimated scf accuracy    <       0.00000009 Ry
     electrostatic embedding   =      -0.04503455 Ry
     cavitation energy         =       0.02152745 Ry
     PV energy                 =      -0.08660014 Ry
     correction to one-el term =     183.29842572 Ry

     iteration # 58     ecut=    50.00 Ry     beta= 0.70
     Davidson diagonalization with overlap
     ethr =  2.54E-11,  avg # of iterations =  1.0

     negative rho (up, down):  1.127E-04 0.000E+00

     add environment contribution to local potential
     Polarization accuracy = 9.0E-12, # of iterations =  43

     total cpu time spent up to now is    18037.7 secs

     total energy              =   -3437.66373879 Ry
     estimated scf accuracy    <       0.00000009 Ry
     electrostatic embedding   =      -0.04503455 Ry
     cavitation energy         =       0.02152745 Ry
     PV energy                 =      -0.08660014 Ry
     correction to one-el term =     183.29842537 Ry

     iteration # 59     ecut=    50.00 Ry     beta= 0.70
     Davidson diagonalization with overlap
     ethr =  2.54E-11,  avg # of iterations =  1.0

     negative rho (up, down):  1.127E-04 0.000E+00

     add environment contribution to local potential
     Polarization accuracy = 9.5E-12, # of iterations =  42

     total cpu time spent up to now is    18254.6 secs

     total energy              =   -3437.66373879 Ry
     estimated scf accuracy    <       0.00000009 Ry
     electrostatic embedding   =      -0.04503454 Ry
     cavitation energy         =       0.02152745 Ry
     PV energy                 =      -0.08660014 Ry
     correction to one-el term =     183.29842506 Ry

     iteration # 60     ecut=    50.00 Ry     beta= 0.70
     Davidson diagonalization with overlap
     ethr =  2.54E-11,  avg # of iterations =  1.0

     negative rho (up, down):  1.127E-04 0.000E+00

     add environment contribution to local potential
     Polarization accuracy = 9.5E-12, # of iterations =  42

     total cpu time spent up to now is    18697.7 secs

     total energy              =   -3437.66373879 Ry
     estimated scf accuracy    <       0.00000009 Ry
     electrostatic embedding   =      -0.04503455 Ry
     cavitation energy         =       0.02152745 Ry
     PV energy                 =      -0.08660014 Ry
     correction to one-el term =     183.29842513 Ry

     iteration # 61     ecut=    50.00 Ry     beta= 0.70
     Davidson diagonalization with overlap
     ethr =  2.54E-11,  avg # of iterations =  1.0

     negative rho (up, down):  1.127E-04 0.000E+00

     add environment contribution to local potential
     Polarization accuracy = 9.5E-12, # of iterations =  42

     total cpu time spent up to now is    18845.1 secs

     total energy              =   -3437.66373879 Ry
     estimated scf accuracy    <       0.00000009 Ry
     electrostatic embedding   =      -0.04503455 Ry
     cavitation energy         =       0.02152745 Ry
     PV energy                 =      -0.08660014 Ry
     correction to one-el term =     183.29842505 Ry

     iteration # 62     ecut=    50.00 Ry     beta= 0.70
     Davidson diagonalization with overlap
     ethr =  2.54E-11,  avg # of iterations =  1.0

     negative rho (up, down):  1.127E-04 0.000E+00

     add environment contribution to local potential
     Polarization accuracy = 9.5E-12, # of iterations =  42

     total cpu time spent up to now is    19024.2 secs

     total energy              =   -3437.66373879 Ry
     estimated scf accuracy    <       0.00000009 Ry
     electrostatic embedding   =      -0.04503455 Ry
     cavitation energy         =       0.02152745 Ry
     PV energy                 =      -0.08660014 Ry
     correction to one-el term =     183.29842521 Ry

     iteration # 63     ecut=    50.00 Ry     beta= 0.70
     Davidson diagonalization with overlap
     ethr =  2.54E-11,  avg # of iterations =  1.0

     negative rho (up, down):  1.127E-04 0.000E+00

     add environment contribution to local potential
     Polarization accuracy = 9.5E-12, # of iterations =  42

     total cpu time spent up to now is    19189.2 secs

     total energy              =   -3437.66373879 Ry
     estimated scf accuracy    <       0.00000009 Ry
     electrostatic embedding   =      -0.04503455 Ry
     cavitation energy         =       0.02152745 Ry
     PV energy                 =      -0.08660014 Ry
     correction to one-el term =     183.29842519 Ry

     iteration # 64     ecut=    50.00 Ry     beta= 0.70
     Davidson diagonalization with overlap
     ethr =  2.54E-11,  avg # of iterations =  1.0

     negative rho (up, down):  1.127E-04 0.000E+00

     add environment contribution to local potential
     Polarization accuracy = 9.5E-12, # of iterations =  42

     total cpu time spent up to now is    19369.2 secs

     total energy              =   -3437.66373879 Ry
     estimated scf accuracy    <       0.00000009 Ry
     electrostatic embedding   =      -0.04503455 Ry
     cavitation energy         =       0.02152745 Ry
     PV energy                 =      -0.08660014 Ry
     correction to one-el term =     183.29842504 Ry

     iteration # 65     ecut=    50.00 Ry     beta= 0.70
     Davidson diagonalization with overlap
     ethr =  2.54E-11,  avg # of iterations =  1.0

     negative rho (up, down):  1.127E-04 0.000E+00

     add environment contribution to local potential
     Polarization accuracy = 9.5E-12, # of iterations =  42

     total cpu time spent up to now is    19534.0 secs

     total energy              =   -3437.66373879 Ry
     estimated scf accuracy    <       0.00000009 Ry
     electrostatic embedding   =      -0.04503455 Ry
     cavitation energy         =       0.02152745 Ry
     PV energy                 =      -0.08660014 Ry
     correction to one-el term =     183.29842477 Ry

     iteration # 66     ecut=    50.00 Ry     beta= 0.70
     Davidson diagonalization with overlap
     ethr =  2.54E-11,  avg # of iterations =  1.0

     negative rho (up, down):  1.127E-04 0.000E+00

     add environment contribution to local potential
     Polarization accuracy = 9.5E-12, # of iterations =  42

     total cpu time spent up to now is    19694.6 secs

     total energy              =   -3437.66373879 Ry
     estimated scf accuracy    <       0.00000009 Ry
     electrostatic embedding   =      -0.04503455 Ry
     cavitation energy         =       0.02152745 Ry
     PV energy                 =      -0.08660014 Ry
     correction to one-el term =     183.29842507 Ry

     iteration # 67     ecut=    50.00 Ry     beta= 0.70
     Davidson diagonalization with overlap
     ethr =  2.54E-11,  avg # of iterations =  1.0

     negative rho (up, down):  1.127E-04 0.000E+00

     add environment contribution to local potential
     Polarization accuracy = 9.5E-12, # of iterations =  42

     total cpu time spent up to now is    19855.9 secs

     total energy              =   -3437.66373880 Ry
     estimated scf accuracy    <       0.00000009 Ry
     electrostatic embedding   =      -0.04503455 Ry
     cavitation energy         =       0.02152745 Ry
     PV energy                 =      -0.08660014 Ry
     correction to one-el term =     183.29842527 Ry

     iteration # 68     ecut=    50.00 Ry     beta= 0.70
     Davidson diagonalization with overlap
     ethr =  2.54E-11,  avg # of iterations =  1.0

     negative rho (up, down):  1.127E-04 0.000E+00

     add environment contribution to local potential
     Polarization accuracy = 9.5E-12, # of iterations =  42

     total cpu time spent up to now is    20020.9 secs

     total energy              =   -3437.66373880 Ry
     estimated scf accuracy    <       0.00000009 Ry
     electrostatic embedding   =      -0.04503455 Ry
     cavitation energy         =       0.02152745 Ry
     PV energy                 =      -0.08660014 Ry
     correction to one-el term =     183.29842544 Ry

     iteration # 69     ecut=    50.00 Ry     beta= 0.70
     Davidson diagonalization with overlap
     ethr =  2.54E-11,  avg # of iterations =  1.0

     negative rho (up, down):  1.127E-04 0.000E+00

     add environment contribution to local potential
     Polarization accuracy = 9.5E-12, # of iterations =  42

     total cpu time spent up to now is    20170.3 secs

     total energy              =   -3437.66373880 Ry
     estimated scf accuracy    <       0.00000009 Ry
     electrostatic embedding   =      -0.04503455 Ry
     cavitation energy         =       0.02152745 Ry
     PV energy                 =      -0.08660014 Ry
     correction to one-el term =     183.29842536 Ry

     iteration # 70     ecut=    50.00 Ry     beta= 0.70
     Davidson diagonalization with overlap
     ethr =  2.54E-11,  avg # of iterations =  1.0

     negative rho (up, down):  1.127E-04 0.000E+00

     add environment contribution to local potential
     Polarization accuracy = 9.5E-12, # of iterations =  42

     total cpu time spent up to now is    20359.6 secs

     total energy              =   -3437.66373880 Ry
     estimated scf accuracy    <       0.00000009 Ry
     electrostatic embedding   =      -0.04503455 Ry
     cavitation energy         =       0.02152745 Ry
     PV energy                 =      -0.08660014 Ry
     correction to one-el term =     183.29842538 Ry

     iteration # 71     ecut=    50.00 Ry     beta= 0.70
     Davidson diagonalization with overlap
     ethr =  2.54E-11,  avg # of iterations =  1.0

     negative rho (up, down):  1.127E-04 0.000E+00

     add environment contribution to local potential
     Polarization accuracy = 9.6E-12, # of iterations =  42

     total cpu time spent up to now is    20536.2 secs

     total energy              =   -3437.66373880 Ry
     estimated scf accuracy    <       0.00000009 Ry
     electrostatic embedding   =      -0.04503455 Ry
     cavitation energy         =       0.02152745 Ry
     PV energy                 =      -0.08660014 Ry
     correction to one-el term =     183.29842536 Ry

     iteration # 72     ecut=    50.00 Ry     beta= 0.70
     Davidson diagonalization with overlap
     ethr =  2.54E-11,  avg # of iterations =  1.0

     negative rho (up, down):  1.127E-04 0.000E+00

     add environment contribution to local potential
     Polarization accuracy = 9.5E-12, # of iterations =  42

     total cpu time spent up to now is    20700.0 secs

     total energy              =   -3437.66373880 Ry
     estimated scf accuracy    <       0.00000009 Ry
     electrostatic embedding   =      -0.04503455 Ry
     cavitation energy         =       0.02152745 Ry
     PV energy                 =      -0.08660014 Ry
     correction to one-el term =     183.29842540 Ry

     iteration # 73     ecut=    50.00 Ry     beta= 0.70
     Davidson diagonalization with overlap
     ethr =  2.54E-11,  avg # of iterations =  1.0

     negative rho (up, down):  1.127E-04 0.000E+00

     add environment contribution to local potential
     Polarization accuracy = 9.5E-12, # of iterations =  42

     total cpu time spent up to now is    20879.2 secs

     total energy              =   -3437.66373880 Ry
     estimated scf accuracy    <       0.00000009 Ry
     electrostatic embedding   =      -0.04503455 Ry
     cavitation energy         =       0.02152745 Ry
     PV energy                 =      -0.08660014 Ry
     correction to one-el term =     183.29842527 Ry

     iteration # 74     ecut=    50.00 Ry     beta= 0.70
     Davidson diagonalization with overlap
     ethr =  2.54E-11,  avg # of iterations =  1.0

     negative rho (up, down):  1.127E-04 0.000E+00

     add environment contribution to local potential
     Polarization accuracy = 9.5E-12, # of iterations =  42

     total cpu time spent up to now is    21032.1 secs

     total energy              =   -3437.66373880 Ry
     estimated scf accuracy    <       0.00000009 Ry
     electrostatic embedding   =      -0.04503455 Ry
     cavitation energy         =       0.02152745 Ry
     PV energy                 =      -0.08660014 Ry
     correction to one-el term =     183.29842524 Ry

     iteration # 75     ecut=    50.00 Ry     beta= 0.70
     Davidson diagonalization with overlap
     ethr =  2.54E-11,  avg # of iterations =  1.0

     negative rho (up, down):  1.127E-04 0.000E+00

     add environment contribution to local potential
     Polarization accuracy = 9.5E-12, # of iterations =  42

     total cpu time spent up to now is    21201.3 secs

     total energy              =   -3437.66373880 Ry
     estimated scf accuracy    <       0.00000009 Ry
     electrostatic embedding   =      -0.04503455 Ry
     cavitation energy         =       0.02152745 Ry
     PV energy                 =      -0.08660014 Ry
     correction to one-el term =     183.29842522 Ry

     iteration # 76     ecut=    50.00 Ry     beta= 0.70
     Davidson diagonalization with overlap
     ethr =  2.54E-11,  avg # of iterations =  1.0

     negative rho (up, down):  1.127E-04 0.000E+00

     add environment contribution to local potential
     Polarization accuracy = 9.5E-12, # of iterations =  42

     total cpu time spent up to now is    21357.7 secs

     total energy              =   -3437.66373880 Ry
     estimated scf accuracy    <       0.00000009 Ry
     electrostatic embedding   =      -0.04503455 Ry
     cavitation energy         =       0.02152745 Ry
     PV energy                 =      -0.08660014 Ry
     correction to one-el term =     183.29842526 Ry

     iteration # 77     ecut=    50.00 Ry     beta= 0.70
     Davidson diagonalization with overlap
     ethr =  2.54E-11,  avg # of iterations =  1.0

     negative rho (up, down):  1.127E-04 0.000E+00

     add environment contribution to local potential
     Polarization accuracy = 9.5E-12, # of iterations =  42

     total cpu time spent up to now is    21518.1 secs

     total energy              =   -3437.66373880 Ry
     estimated scf accuracy    <       0.00000009 Ry
     electrostatic embedding   =      -0.04503455 Ry
     cavitation energy         =       0.02152745 Ry
     PV energy                 =      -0.08660014 Ry
     correction to one-el term =     183.29842522 Ry

     iteration # 78     ecut=    50.00 Ry     beta= 0.70
     Davidson diagonalization with overlap
     ethr =  2.54E-11,  avg # of iterations =  1.0

     negative rho (up, down):  1.127E-04 0.000E+00

     add environment contribution to local potential
     Polarization accuracy = 9.5E-12, # of iterations =  42

     total cpu time spent up to now is    21676.3 secs

     total energy              =   -3437.66373880 Ry
     estimated scf accuracy    <       0.00000009 Ry
     electrostatic embedding   =      -0.04503455 Ry
     cavitation energy         =       0.02152745 Ry
     PV energy                 =      -0.08660014 Ry
     correction to one-el term =     183.29842516 Ry

     iteration # 79     ecut=    50.00 Ry     beta= 0.70
     Davidson diagonalization with overlap
     ethr =  2.54E-11,  avg # of iterations =  1.0

     negative rho (up, down):  1.127E-04 0.000E+00

     add environment contribution to local potential
     Polarization accuracy = 9.5E-12, # of iterations =  42

     total cpu time spent up to now is    21841.6 secs

     total energy              =   -3437.66373880 Ry
     estimated scf accuracy    <       0.00000009 Ry
     electrostatic embedding   =      -0.04503455 Ry
     cavitation energy         =       0.02152745 Ry
     PV energy                 =      -0.08660014 Ry
     correction to one-el term =     183.29842517 Ry

     iteration # 80     ecut=    50.00 Ry     beta= 0.70
     Davidson diagonalization with overlap
     ethr =  2.54E-11,  avg # of iterations =  1.0

     negative rho (up, down):  1.127E-04 0.000E+00

     add environment contribution to local potential
     Polarization accuracy = 9.6E-12, # of iterations =  42

     total cpu time spent up to now is    22029.3 secs

     total energy              =   -3437.66373880 Ry
     estimated scf accuracy    <       0.00000009 Ry
     electrostatic embedding   =      -0.04503455 Ry
     cavitation energy         =       0.02152745 Ry
     PV energy                 =      -0.08660014 Ry
     correction to one-el term =     183.29842527 Ry

     iteration # 81     ecut=    50.00 Ry     beta= 0.70
     Davidson diagonalization with overlap
     ethr =  2.54E-11,  avg # of iterations =  1.0

     negative rho (up, down):  1.127E-04 0.000E+00

     add environment contribution to local potential
     Polarization accuracy = 9.5E-12, # of iterations =  42

     total cpu time spent up to now is    22194.2 secs

     total energy              =   -3437.66373880 Ry
     estimated scf accuracy    <       0.00000009 Ry
     electrostatic embedding   =      -0.04503455 Ry
     cavitation energy         =       0.02152745 Ry
     PV energy                 =      -0.08660014 Ry
     correction to one-el term =     183.29842525 Ry

     iteration # 82     ecut=    50.00 Ry     beta= 0.70
     Davidson diagonalization with overlap
     ethr =  2.54E-11,  avg # of iterations =  1.0

     negative rho (up, down):  1.127E-04 0.000E+00

     add environment contribution to local potential
     Polarization accuracy = 9.5E-12, # of iterations =  42

     total cpu time spent up to now is    22372.0 secs

     total energy              =   -3437.66373880 Ry
     estimated scf accuracy    <       0.00000009 Ry
     electrostatic embedding   =      -0.04503455 Ry
     cavitation energy         =       0.02152745 Ry
     PV energy                 =      -0.08660014 Ry
     correction to one-el term =     183.29842519 Ry

     iteration # 83     ecut=    50.00 Ry     beta= 0.70
     Davidson diagonalization with overlap
     ethr =  2.54E-11,  avg # of iterations =  1.0

     negative rho (up, down):  1.127E-04 0.000E+00

     add environment contribution to local potential
     Polarization accuracy = 9.7E-12, # of iterations =  42

     total cpu time spent up to now is    22532.9 secs

     total energy              =   -3437.66373880 Ry
     estimated scf accuracy    <       0.00000009 Ry
     electrostatic embedding   =      -0.04503455 Ry
     cavitation energy         =       0.02152745 Ry
     PV energy                 =      -0.08660014 Ry
     correction to one-el term =     183.29842529 Ry

     iteration # 84     ecut=    50.00 Ry     beta= 0.70
     Davidson diagonalization with overlap
     ethr =  2.54E-11,  avg # of iterations =  1.0

     negative rho (up, down):  1.127E-04 0.000E+00

     add environment contribution to local potential
     Polarization accuracy = 9.5E-12, # of iterations =  42

     total cpu time spent up to now is    22686.7 secs

     total energy              =   -3437.66373880 Ry
     estimated scf accuracy    <       0.00000009 Ry
     electrostatic embedding   =      -0.04503455 Ry
     cavitation energy         =       0.02152745 Ry
     PV energy                 =      -0.08660014 Ry
     correction to one-el term =     183.29842528 Ry

     iteration # 85     ecut=    50.00 Ry     beta= 0.70
     Davidson diagonalization with overlap
     ethr =  2.54E-11,  avg # of iterations =  1.0

     negative rho (up, down):  1.127E-04 0.000E+00

     add environment contribution to local potential
     Polarization accuracy = 9.5E-12, # of iterations =  42

     total cpu time spent up to now is    22834.0 secs

     total energy              =   -3437.66373880 Ry
     estimated scf accuracy    <       0.00000009 Ry
     electrostatic embedding   =      -0.04503455 Ry
     cavitation energy         =       0.02152745 Ry
     PV energy                 =      -0.08660014 Ry
     correction to one-el term =     183.29842528 Ry

     iteration # 86     ecut=    50.00 Ry     beta= 0.70
     Davidson diagonalization with overlap
     ethr =  2.54E-11,  avg # of iterations =  1.0

     negative rho (up, down):  1.127E-04 0.000E+00

     add environment contribution to local potential
     Polarization accuracy = 9.5E-12, # of iterations =  42

     total cpu time spent up to now is    23007.2 secs

     total energy              =   -3437.66373880 Ry
     estimated scf accuracy    <       0.00000009 Ry
     electrostatic embedding   =      -0.04503455 Ry
     cavitation energy         =       0.02152745 Ry
     PV energy                 =      -0.08660014 Ry
     correction to one-el term =     183.29842527 Ry

     iteration # 87     ecut=    50.00 Ry     beta= 0.70
     Davidson diagonalization with overlap
     ethr =  2.54E-11,  avg # of iterations =  1.0

     negative rho (up, down):  1.127E-04 0.000E+00

     add environment contribution to local potential
     Polarization accuracy = 9.5E-12, # of iterations =  42

     total cpu time spent up to now is    23175.2 secs

     total energy              =   -3437.66373880 Ry
     estimated scf accuracy    <       0.00000009 Ry
     electrostatic embedding   =      -0.04503455 Ry
     cavitation energy         =       0.02152745 Ry
     PV energy                 =      -0.08660014 Ry
     correction to one-el term =     183.29842531 Ry

     iteration # 88     ecut=    50.00 Ry     beta= 0.70
     Davidson diagonalization with overlap
     ethr =  2.54E-11,  avg # of iterations =  1.0

     negative rho (up, down):  1.127E-04 0.000E+00

     add environment contribution to local potential
     Polarization accuracy = 9.6E-12, # of iterations =  42

     total cpu time spent up to now is    23359.8 secs

     total energy              =   -3437.66373880 Ry
     estimated scf accuracy    <       0.00000009 Ry
     electrostatic embedding   =      -0.04503455 Ry
     cavitation energy         =       0.02152745 Ry
     PV energy                 =      -0.08660014 Ry
     correction to one-el term =     183.29842524 Ry

     iteration # 89     ecut=    50.00 Ry     beta= 0.70
     Davidson diagonalization with overlap
     ethr =  2.54E-11,  avg # of iterations =  1.0

     negative rho (up, down):  1.127E-04 0.000E+00

     add environment contribution to local potential
     Polarization accuracy = 9.5E-12, # of iterations =  42

     total cpu time spent up to now is    23537.7 secs

     total energy              =   -3437.66373880 Ry
     estimated scf accuracy    <       0.00000009 Ry
     electrostatic embedding   =      -0.04503455 Ry
     cavitation energy         =       0.02152745 Ry
     PV energy                 =      -0.08660014 Ry
     correction to one-el term =     183.29842537 Ry

     iteration # 90     ecut=    50.00 Ry     beta= 0.70
     Davidson diagonalization with overlap
     ethr =  2.54E-11,  avg # of iterations =  1.0

     negative rho (up, down):  1.127E-04 0.000E+00

     add environment contribution to local potential
     Polarization accuracy = 9.5E-12, # of iterations =  42

     total cpu time spent up to now is    23712.8 secs

     total energy              =   -3437.66373880 Ry
     estimated scf accuracy    <       0.00000009 Ry
     electrostatic embedding   =      -0.04503455 Ry
     cavitation energy         =       0.02152745 Ry
     PV energy                 =      -0.08660014 Ry
     correction to one-el term =     183.29842528 Ry

     iteration # 91     ecut=    50.00 Ry     beta= 0.70
     Davidson diagonalization with overlap
     ethr =  2.54E-11,  avg # of iterations =  1.0

     negative rho (up, down):  1.127E-04 0.000E+00

     add environment contribution to local potential
     Polarization accuracy = 9.5E-12, # of iterations =  42

     total cpu time spent up to now is    23882.8 secs

     total energy              =   -3437.66373880 Ry
     estimated scf accuracy    <       0.00000009 Ry
     electrostatic embedding   =      -0.04503455 Ry
     cavitation energy         =       0.02152745 Ry
     PV energy                 =      -0.08660014 Ry
     correction to one-el term =     183.29842527 Ry

     iteration # 92     ecut=    50.00 Ry     beta= 0.70
     Davidson diagonalization with overlap
     ethr =  2.54E-11,  avg # of iterations =  1.0

     negative rho (up, down):  1.127E-04 0.000E+00

     add environment contribution to local potential
     Polarization accuracy = 9.5E-12, # of iterations =  42

     total cpu time spent up to now is    24060.8 secs

     total energy              =   -3437.66373880 Ry
     estimated scf accuracy    <       0.00000009 Ry
     electrostatic embedding   =      -0.04503455 Ry
     cavitation energy         =       0.02152745 Ry
     PV energy                 =      -0.08660014 Ry
     correction to one-el term =     183.29842524 Ry

     iteration # 93     ecut=    50.00 Ry     beta= 0.70
     Davidson diagonalization with overlap
     ethr =  2.54E-11,  avg # of iterations =  1.0

     negative rho (up, down):  1.127E-04 0.000E+00

     add environment contribution to local potential
     Polarization accuracy = 9.5E-12, # of iterations =  42

     total cpu time spent up to now is    24235.4 secs

     total energy              =   -3437.66373880 Ry
     estimated scf accuracy    <       0.00000009 Ry
     electrostatic embedding   =      -0.04503455 Ry
     cavitation energy         =       0.02152745 Ry
     PV energy                 =      -0.08660014 Ry
     correction to one-el term =     183.29842521 Ry

     iteration # 94     ecut=    50.00 Ry     beta= 0.70
     Davidson diagonalization with overlap
     ethr =  2.54E-11,  avg # of iterations =  1.0

     negative rho (up, down):  1.127E-04 0.000E+00

     add environment contribution to local potential
     Polarization accuracy = 9.5E-12, # of iterations =  42

     total cpu time spent up to now is    24399.8 secs

     total energy              =   -3437.66373880 Ry
     estimated scf accuracy    <       0.00000009 Ry
     electrostatic embedding   =      -0.04503455 Ry
     cavitation energy         =       0.02152745 Ry
     PV energy                 =      -0.08660014 Ry
     correction to one-el term =     183.29842527 Ry

     iteration # 95     ecut=    50.00 Ry     beta= 0.70
     Davidson diagonalization with overlap
     ethr =  2.54E-11,  avg # of iterations =  1.0

     negative rho (up, down):  1.127E-04 0.000E+00

     add environment contribution to local potential
     Polarization accuracy = 9.5E-12, # of iterations =  42

     total cpu time spent up to now is    24566.1 secs

     total energy              =   -3437.66373880 Ry
     estimated scf accuracy    <       0.00000009 Ry
     electrostatic embedding   =      -0.04503455 Ry
     cavitation energy         =       0.02152745 Ry
     PV energy                 =      -0.08660014 Ry
     correction to one-el term =     183.29842523 Ry

     iteration # 96     ecut=    50.00 Ry     beta= 0.70
     Davidson diagonalization with overlap
     ethr =  2.54E-11,  avg # of iterations =  1.0

     negative rho (up, down):  1.127E-04 0.000E+00

     add environment contribution to local potential
     Polarization accuracy = 9.5E-12, # of iterations =  42

     total cpu time spent up to now is    24729.6 secs

     total energy              =   -3437.66373880 Ry
     estimated scf accuracy    <       0.00000009 Ry
     electrostatic embedding   =      -0.04503455 Ry
     cavitation energy         =       0.02152745 Ry
     PV energy                 =      -0.08660014 Ry
     correction to one-el term =     183.29842533 Ry

     iteration # 97     ecut=    50.00 Ry     beta= 0.70
     Davidson diagonalization with overlap
     ethr =  2.54E-11,  avg # of iterations =  1.0

     negative rho (up, down):  1.127E-04 0.000E+00

     add environment contribution to local potential
     Polarization accuracy = 9.5E-12, # of iterations =  42

     total cpu time spent up to now is    24906.9 secs

     total energy              =   -3437.66373880 Ry
     estimated scf accuracy    <       0.00000009 Ry
     electrostatic embedding   =      -0.04503455 Ry
     cavitation energy         =       0.02152745 Ry
     PV energy                 =      -0.08660014 Ry
     correction to one-el term =     183.29842529 Ry

     iteration # 98     ecut=    50.00 Ry     beta= 0.70
     Davidson diagonalization with overlap
     ethr =  2.54E-11,  avg # of iterations =  1.0

     negative rho (up, down):  1.127E-04 0.000E+00

     add environment contribution to local potential
     Polarization accuracy = 9.5E-12, # of iterations =  42

     total cpu time spent up to now is    25078.8 secs

     total energy              =   -3437.66373880 Ry
     estimated scf accuracy    <       0.00000009 Ry
     electrostatic embedding   =      -0.04503455 Ry
     cavitation energy         =       0.02152745 Ry
     PV energy                 =      -0.08660014 Ry
     correction to one-el term =     183.29842531 Ry

     iteration # 99     ecut=    50.00 Ry     beta= 0.70
     Davidson diagonalization with overlap
     ethr =  2.54E-11,  avg # of iterations =  1.0

     negative rho (up, down):  1.127E-04 0.000E+00

     add environment contribution to local potential
     Polarization accuracy = 9.5E-12, # of iterations =  42

     total cpu time spent up to now is    25238.3 secs

     total energy              =   -3437.66373880 Ry
     estimated scf accuracy    <       0.00000009 Ry
     electrostatic embedding   =      -0.04503455 Ry
     cavitation energy         =       0.02152745 Ry
     PV energy                 =      -0.08660014 Ry
     correction to one-el term =     183.29842556 Ry

     iteration #100     ecut=    50.00 Ry     beta= 0.70
[...]
O             0.7530088011        0.3080683305        0.6486921438
Ru            0.0020239827        0.4997476699        0.6482988040
Ru            0.5020239827        0.5002523301        0.6482988040
O             0.2530088011        0.6919316695        0.6486921438
O             0.7542295414        0.6916196487        0.6481258050
O             0.0017335799        0.0022331472        0.7004573953
O             0.5017335799       -0.0022331472        0.7004573953
O            -0.0195212436        0.4857950539        0.7375699487
O             0.4804787564        0.5142049461        0.7375699487
H             0.1195450203        0.5028627537        0.2454838691
H             0.1195450203        0.5028627537        0.7545161309
H             0.6195450203        0.4971372463        0.2454838691
H             0.6195450203        0.4971372463        0.7545161309
H            -0.0008188321        0.1104695891        0.2675924227
H            -0.0008188321        0.1104695891        0.7324075773
H             0.4991811679        0.8895304109        0.2675924227
H             0.4991811679        0.8895304109        0.7324075773



     Writing config-only to output data dir /storage/home/mgm6007/ixd4/Maria/Strain0_Files/RuO2-110-0-0125/RuO2-110-0-0125.save/
     NEW-OLD atomic charge density approx. for the potential

     Check: negative core charge=   -0.000001

     negative rho (up, down):  1.309E-04 0.000E+00

     add environment contribution to local potential
     Polarization accuracy = 2.6E-12, # of iterations =  43

     total cpu time spent up to now is   202632.5 secs

     per-process dynamical memory:   236.8 Mb

     Self-consistent Calculation

     iteration #  1     ecut=    50.00 Ry     beta= 0.70
     Davidson diagonalization with overlap
     ethr =  1.00E-06,  avg # of iterations =  5.0

     negative rho (up, down):  4.797E-04 0.000E+00

     add environment contribution to local potential
     Polarization accuracy = 9.0E-12, # of iterations =  42

     total cpu time spent up to now is   202829.0 secs

     total energy              =   -3437.84174820 Ry
     estimated scf accuracy    <       0.00265177 Ry
     electrostatic embedding   =      -0.03603203 Ry
     cavitation energy         =       0.02137826 Ry
     PV energy                 =      -0.08425548 Ry
     correction to one-el term =     184.03939814 Ry

     iteration #  2     ecut=    50.00 Ry     beta= 0.70
     Davidson diagonalization with overlap
     ethr =  7.21E-07,  avg # of iterations =  2.0

     negative rho (up, down):  6.408E-04 0.000E+00

     add environment contribution to local potential
     Polarization accuracy = 9.0E-12, # of iterations =  42

     total cpu time spent up to now is   203008.5 secs

     total energy              =   -3437.84194915 Ry
     estimated scf accuracy    <       0.00149648 Ry
     electrostatic embedding   =      -0.03478282 Ry
     cavitation energy         =       0.02137265 Ry
     PV energy                 =      -0.08436494 Ry
     correction to one-el term =     184.18557837 Ry

     iteration #  3     ecut=    50.00 Ry     beta= 0.70
     Davidson diagonalization with overlap
     ethr =  4.07E-07,  avg # of iterations =  1.0

     negative rho (up, down):  7.820E-04 0.000E+00

     add environment contribution to local potential
     Polarization accuracy = 8.3E-12, # of iterations =  42

     total cpu time spent up to now is   203217.9 secs

     total energy              =   -3437.84203275 Ry
     estimated scf accuracy    <       0.00208887 Ry
     electrostatic embedding   =      -0.03435503 Ry
     cavitation energy         =       0.02137670 Ry
     PV energy                 =      -0.08440028 Ry
     correction to one-el term =     184.22243951 Ry

     iteration #  4     ecut=    50.00 Ry     beta= 0.70
     Davidson diagonalization with overlap
     ethr =  4.07E-07,  avg # of iterations =  1.0

     negative rho (up, down):  8.685E-04 0.000E+00

     add environment contribution to local potential
     Polarization accuracy = 7.9E-12, # of iterations =  42

     total cpu time spent up to now is   203414.9 secs

     total energy              =   -3437.84211164 Ry
     estimated scf accuracy    <       0.00017645 Ry
     electrostatic embedding   =      -0.03394489 Ry
     cavitation energy         =       0.02138048 Ry
     PV energy                 =      -0.08443355 Ry
     correction to one-el term =     184.24974710 Ry

     iteration #  5     ecut=    50.00 Ry     beta= 0.70
     Davidson diagonalization with overlap
     ethr =  4.79E-08,  avg # of iterations =  2.0

     negative rho (up, down):  8.635E-04 0.000E+00

     add environment contribution to local potential
     Polarization accuracy = 7.7E-12, # of iterations =  41

     total cpu time spent up to now is   203601.0 secs

     total energy              =   -3437.84213067 Ry
     estimated scf accuracy    <       0.00012581 Ry
     electrostatic embedding   =      -0.03361134 Ry
     cavitation energy         =       0.02138645 Ry
     PV energy                 =      -0.08445738 Ry
     correction to one-el term =     184.27322867 Ry

     iteration #  6     ecut=    50.00 Ry     beta= 0.70
     Davidson diagonalization with overlap
     ethr =  3.42E-08,  avg # of iterations =  1.0

     negative rho (up, down):  7.819E-04 0.000E+00

     add environment contribution to local potential
     Polarization accuracy = 7.8E-12, # of iterations =  42

     total cpu time spent up to now is   203786.8 secs

     total energy              =   -3437.84213701 Ry
     estimated scf accuracy    <       0.00003439 Ry
     electrostatic embedding   =      -0.03352007 Ry
     cavitation energy         =       0.02138940 Ry
     PV energy                 =      -0.08446287 Ry
     correction to one-el term =     184.27724103 Ry

     iteration #  7     ecut=    50.00 Ry     beta= 0.70
     Davidson diagonalization with overlap
     ethr =  9.35E-09,  avg # of iterations =  1.0

     negative rho (up, down):  6.831E-04 0.000E+00

     add environment contribution to local potential
     Polarization accuracy = 8.0E-12, # of iterations =  42

     total cpu time spent up to now is   203968.4 secs

     total energy              =   -3437.84213748 Ry
     estimated scf accuracy    <       0.00002536 Ry
     electrostatic embedding   =      -0.03342430 Ry
     cavitation energy         =       0.02139534 Ry
     PV energy                 =      -0.08446617 Ry
     correction to one-el term =     184.27864705 Ry

     iteration #  8     ecut=    50.00 Ry     beta= 0.70
     Davidson diagonalization with overlap
     ethr =  6.89E-09,  avg # of iterations =  1.0

     negative rho (up, down):  5.064E-04 0.000E+00

     add environment contribution to local potential
     Polarization accuracy = 8.3E-12, # of iterations =  41

     total cpu time spent up to now is   204139.8 secs

     total energy              =   -3437.84213801 Ry
     estimated scf accuracy    <       0.00002392 Ry
     electrostatic embedding   =      -0.03334135 Ry
     cavitation energy         =       0.02140022 Ry
     PV energy                 =      -0.08447017 Ry
     correction to one-el term =     184.28067907 Ry

     iteration #  9     ecut=    50.00 Ry     beta= 0.70
     Davidson diagonalization with overlap
     ethr =  6.50E-09,  avg # of iterations =  1.0

     negative rho (up, down):  3.137E-04 0.000E+00

     add environment contribution to local potential
     Polarization accuracy = 8.2E-12, # of iterations =  42

     total cpu time spent up to now is   204310.2 secs

     total energy              =   -3437.84213863 Ry
     estimated scf accuracy    <       0.00000738 Ry
     electrostatic embedding   =      -0.03327417 Ry
     cavitation energy         =       0.02140474 Ry
     PV energy                 =      -0.08447552 Ry
     correction to one-el term =     184.28450228 Ry

     iteration # 10     ecut=    50.00 Ry     beta= 0.70
     Davidson diagonalization with overlap
     ethr =  2.00E-09,  avg # of iterations =  1.0

     negative rho (up, down):  2.102E-04 0.000E+00

     add environment contribution to local potential
     Polarization accuracy = 8.1E-12, # of iterations =  42

     total cpu time spent up to now is   204502.5 secs

     total energy              =   -3437.84213915 Ry
     estimated scf accuracy    <       0.00000212 Ry
     electrostatic embedding   =      -0.03326123 Ry
     cavitation energy         =       0.02140644 Ry
     PV energy                 =      -0.08448044 Ry
     correction to one-el term =     184.28629960 Ry

     iteration # 11     ecut=    50.00 Ry     beta= 0.70
     Davidson diagonalization with overlap
     ethr =  5.76E-10,  avg # of iterations =  2.0

     negative rho (up, down):  1.712E-04 0.000E+00

     add environment contribution to local potential
     Polarization accuracy = 8.0E-12, # of iterations =  42

     total cpu time spent up to now is   204706.2 secs

     total energy              =   -3437.84213916 Ry
     estimated scf accuracy    <       0.00000038 Ry
     electrostatic embedding   =      -0.03329180 Ry
     cavitation energy         =       0.02140515 Ry
     PV energy                 =      -0.08448299 Ry
     correction to one-el term =     184.28397443 Ry

     iteration # 12     ecut=    50.00 Ry     beta= 0.70
     Davidson diagonalization with overlap
     ethr =  1.03E-10,  avg # of iterations =  5.0

     negative rho (up, down):  1.480E-04 0.000E+00

     add environment contribution to local potential
     Polarization accuracy = 7.9E-12, # of iterations =  42

     total cpu time spent up to now is   204905.1 secs

     total energy              =   -3437.84213924 Ry
     estimated scf accuracy    <       0.00000013 Ry
     electrostatic embedding   =      -0.03330732 Ry
     cavitation energy         =       0.02140431 Ry
     PV energy                 =      -0.08448413 Ry
     correction to one-el term =     184.28111157 Ry

     iteration # 13     ecut=    50.00 Ry     beta= 0.70
     Davidson diagonalization with overlap
     ethr =  3.64E-11,  avg # of iterations =  1.0

     negative rho (up, down):  1.328E-04 0.000E+00

     add environment contribution to local potential
     Polarization accuracy = 7.9E-12, # of iterations =  42

     total cpu time spent up to now is   205071.3 secs

     total energy              =   -3437.84213936 Ry
     estimated scf accuracy    <       0.00000011 Ry
     electrostatic embedding   =      -0.03330785 Ry
     cavitation energy         =       0.02140411 Ry
     PV energy                 =      -0.08448510 Ry
     correction to one-el term =     184.27806406 Ry

     iteration # 14     ecut=    50.00 Ry     beta= 0.70
     Davidson diagonalization with overlap
     ethr =  2.88E-11,  avg # of iterations =  1.0

     negative rho (up, down):  1.322E-04 0.000E+00

     add environment contribution to local potential
     Polarization accuracy = 7.9E-12, # of iterations =  42

     total cpu time spent up to now is   205244.5 secs

     total energy              =   -3437.84213938 Ry
     estimated scf accuracy    <       0.00000011 Ry
     electrostatic embedding   =      -0.03331001 Ry
     cavitation energy         =       0.02140403 Ry
     PV energy                 =      -0.08448550 Ry
     correction to one-el term =     184.27634919 Ry

     iteration # 15     ecut=    50.00 Ry     beta= 0.70
     Davidson diagonalization with overlap
     ethr =  2.88E-11,  avg # of iterations =  1.0

     negative rho (up, down):  1.279E-04 0.000E+00

     add environment contribution to local potential
     Polarization accuracy = 8.1E-12, # of iterations =  41

     total cpu time spent up to now is   205427.1 secs

     total energy              =   -3437.84213939 Ry
     estimated scf accuracy    <       0.00000010 Ry
     electrostatic embedding   =      -0.03330897 Ry
     cavitation energy         =       0.02140409 Ry
     PV energy                 =      -0.08448538 Ry
     correction to one-el term =     184.27562557 Ry

     iteration # 16     ecut=    50.00 Ry     beta= 0.70
     Davidson diagonalization with overlap
     ethr =  2.59E-11,  avg # of iterations =  1.0

     negative rho (up, down):  1.238E-04 0.000E+00

     add environment contribution to local potential
     Polarization accuracy = 7.9E-12, # of iterations =  42

     total cpu time spent up to now is   205630.6 secs

     total energy              =   -3437.84213940 Ry
     estimated scf accuracy    <       0.00000009 Ry
     electrostatic embedding   =      -0.03330834 Ry
     cavitation energy         =       0.02140420 Ry
     PV energy                 =      -0.08448544 Ry
     correction to one-el term =     184.27521938 Ry

     iteration # 17     ecut=    50.00 Ry     beta= 0.70
     Davidson diagonalization with overlap
     ethr =  2.58E-11,  avg # of iterations =  1.0

     negative rho (up, down):  1.230E-04 0.000E+00

     add environment contribution to local potential
     Polarization accuracy = 7.9E-12, # of iterations =  42

     total cpu time spent up to now is   205833.1 secs

     total energy              =   -3437.84213940 Ry
     estimated scf accuracy    <       0.00000009 Ry
     electrostatic embedding   =      -0.03330875 Ry
     cavitation energy         =       0.02140425 Ry
     PV energy                 =      -0.08448540 Ry
     correction to one-el term =     184.27444010 Ry

     iteration # 18     ecut=    50.00 Ry     beta= 0.70
     Davidson diagonalization with overlap
     ethr =  2.55E-11,  avg # of iterations =  1.0

     negative rho (up, down):  1.229E-04 0.000E+00

     add environment contribution to local potential
     Polarization accuracy = 7.9E-12, # of iterations =  42

     total cpu time spent up to now is   206024.0 secs

     total energy              =   -3437.84213940 Ry
     estimated scf accuracy    <       0.00000009 Ry
     electrostatic embedding   =      -0.03330883 Ry
     cavitation energy         =       0.02140427 Ry
     PV energy                 =      -0.08448541 Ry
     correction to one-el term =     184.27437247 Ry

     iteration # 19     ecut=    50.00 Ry     beta= 0.70
     Davidson diagonalization with overlap
     ethr =  2.55E-11,  avg # of iterations =  1.0

     negative rho (up, down):  1.229E-04 0.000E+00

     add environment contribution to local potential
     Polarization accuracy = 7.9E-12, # of iterations =  42

     total cpu time spent up to now is   206216.5 secs

     total energy              =   -3437.84213941 Ry
     estimated scf accuracy    <       0.00000009 Ry
     electrostatic embedding   =      -0.03330880 Ry
     cavitation energy         =       0.02140428 Ry
     PV energy                 =      -0.08448540 Ry
     correction to one-el term =     184.27434414 Ry

     iteration # 20     ecut=    50.00 Ry     beta= 0.70
     Davidson diagonalization with overlap
     ethr =  2.55E-11,  avg # of iterations =  1.0

     negative rho (up, down):  1.229E-04 0.000E+00

     add environment contribution to local potential
     Polarization accuracy = 7.9E-12, # of iterations =  42

     total cpu time spent up to now is   206403.3 secs

     total energy              =   -3437.84213941 Ry
     estimated scf accuracy    <       0.00000009 Ry
     electrostatic embedding   =      -0.03330881 Ry
     cavitation energy         =       0.02140428 Ry
     PV energy                 =      -0.08448541 Ry
     correction to one-el term =     184.27434477 Ry

     iteration # 21     ecut=    50.00 Ry     beta= 0.70
     Davidson diagonalization with overlap
     ethr =  2.55E-11,  avg # of iterations =  1.0

     negative rho (up, down):  1.228E-04 0.000E+00

     add environment contribution to local potential
     Polarization accuracy = 7.9E-12, # of iterations =  42

     total cpu time spent up to now is   206583.1 secs

     total energy              =   -3437.84213941 Ry
     estimated scf accuracy    <       0.00000009 Ry
     electrostatic embedding   =      -0.03330880 Ry
     cavitation energy         =       0.02140428 Ry
     PV energy                 =      -0.08448541 Ry
     correction to one-el term =     184.27433428 Ry

     iteration # 22     ecut=    50.00 Ry     beta= 0.70
     Davidson diagonalization with overlap
     ethr =  2.55E-11,  avg # of iterations =  1.0

     negative rho (up, down):  1.228E-04 0.000E+00

     add environment contribution to local potential
     Polarization accuracy = 7.9E-12, # of iterations =  42

     total cpu time spent up to now is   206742.9 secs

     total energy              =   -3437.84213942 Ry
     estimated scf accuracy    <       0.00000009 Ry
     electrostatic embedding   =      -0.03330882 Ry
     cavitation energy         =       0.02140428 Ry
     PV energy                 =      -0.08448540 Ry
     correction to one-el term =     184.27432310 Ry

     iteration # 23     ecut=    50.00 Ry     beta= 0.70
     Davidson diagonalization with overlap
     ethr =  2.55E-11,  avg # of iterations =  1.0

     negative rho (up, down):  1.228E-04 0.000E+00

     add environment contribution to local potential
     Polarization accuracy = 7.9E-12, # of iterations =  42

     total cpu time spent up to now is   206931.9 secs

     total energy              =   -3437.84213942 Ry
     estimated scf accuracy    <       0.00000009 Ry
     electrostatic embedding   =      -0.03330882 Ry
     cavitation energy         =       0.02140428 Ry
     PV energy                 =      -0.08448541 Ry
     correction to one-el term =     184.27432170 Ry

     iteration # 24     ecut=    50.00 Ry     beta= 0.70
     Davidson diagonalization with overlap
     ethr =  2.55E-11,  avg # of iterations =  1.0

     negative rho (up, down):  1.228E-04 0.000E+00

     add environment contribution to local potential
     Polarization accuracy = 7.9E-12, # of iterations =  42

     total cpu time spent up to now is   207110.7 secs

     total energy              =   -3437.84213943 Ry
     estimated scf accuracy    <       0.00000009 Ry
     electrostatic embedding   =      -0.03330883 Ry
     cavitation energy         =       0.02140428 Ry
     PV energy                 =      -0.08448541 Ry
     correction to one-el term =     184.27432385 Ry

     iteration # 25     ecut=    50.00 Ry     beta= 0.70
     Davidson diagonalization with overlap
     ethr =  2.55E-11,  avg # of iterations =  1.0

     negative rho (up, down):  1.229E-04 0.000E+00

     add environment contribution to local potential
     Polarization accuracy = 7.9E-12, # of iterations =  42

     total cpu time spent up to now is   207278.0 secs

     total energy              =   -3437.84213945 Ry
     estimated scf accuracy    <       0.00000009 Ry
     electrostatic embedding   =      -0.03330884 Ry
     cavitation energy         =       0.02140428 Ry
     PV energy                 =      -0.08448541 Ry
     correction to one-el term =     184.27431943 Ry

     iteration # 26     ecut=    50.00 Ry     beta= 0.70
     Davidson diagonalization with overlap
     ethr =  2.55E-11,  avg # of iterations =  1.0

     negative rho (up, down):  1.229E-04 0.000E+00

     add environment contribution to local potential
     Polarization accuracy = 7.9E-12, # of iterations =  42

     total cpu time spent up to now is   207463.3 secs

     total energy              =   -3437.84213950 Ry
     estimated scf accuracy    <       0.00000009 Ry
     electrostatic embedding   =      -0.03330885 Ry
     cavitation energy         =       0.02140428 Ry
     PV energy                 =      -0.08448541 Ry
     correction to one-el term =     184.27432299 Ry

     iteration # 27     ecut=    50.00 Ry     beta= 0.70
     Davidson diagonalization with overlap
     ethr =  2.55E-11,  avg # of iterations =  1.0

     negative rho (up, down):  1.229E-04 0.000E+00

     add environment contribution to local potential
