
     Program PWSCF v.7.2 starts on 23Jul2023 at 23:15:21 
        Git branch: heads/qe-7.2
        Last git commit: b4c5e8deeb7d1863e7553a87b45f8d22c21926a5
        Last git commit date: Mon Mar 27 16:12:09 2023 +0000
        Last git commit subject: Merge branch 'merge_fix_hubbard' into 'develop'

     This program is part of the open-source Quantum ESPRESSO suite
     for quantum simulation of materials; please cite
         "P. Giannozzi et al., J. Phys.:Condens. Matter 21 395502 (2009);
         "P. Giannozzi et al., J. Phys.:Condens. Matter 29 465901 (2017);
         "P. Giannozzi et al., J. Chem. Phys. 152 154105 (2020);
          URL http://www.quantum-espresso.org", 
     in publications or presentations arising from this work. More details at
     http://www.quantum-espresso.org/quote

     Parallel version (MPI), running on    20 processors

     MPI processes distributed on     1 nodes
     107655 MiB available memory on the printing compute node when the environment starts
 
     Reading input from RuO2-110-0-03.in

     Current dimensions of program PWSCF are:
     Max number of different atomic species (ntypx) = 10
     Max number of k-points (npk) =  40000
     Max angular momentum in pseudopotentials (lmaxx) =  4
 
     Reading input from environ.in:
     * Environ restarting
     * setting up water environment
     * using electronic solvent mode
     * setting boundary derivatives method to SCCS default
     
     file O.pbe-n-kjpaw_psl.0.1.UPF: wavefunction(s)  2P renormalized
     Message from routine setup:
     using ibrav=0 with symmetry is DISCOURAGED, use correct ibrav instead
 
     R & G space division:  proc/nbgrp/npool/nimage =      20
     Subspace diagonalization in iterative solution of the eigenvalue problem:
     one sub-group per band group will be used
     scalapack distributed-memory algorithm (size of sub-group:  2*  2 procs)

 
     Parallelization info
     --------------------
     sticks:   dense  smooth     PW     G-vecs:    dense   smooth      PW
     Min         282     113     29                56190    14217    1913
     Max         283     114     30                56201    14227    1932
     Sum        5657    2263    593              1123933   284439   38425
 
     Using Slab Decomposition
 


     bravais-lattice index     =            0
     lattice parameter (alat)  =      12.1041  a.u.
     unit-cell volume          =    5954.5483 (a.u.)^3
     number of atoms/cell      =           44
     number of atomic types    =            3
     number of electrons       =       364.00
     number of Kohn-Sham states=          218
     kinetic-energy cutoff     =      50.0000  Ry
     charge density cutoff     =     500.0000  Ry
     scf convergence threshold =      1.0E-09
     mixing beta               =       0.7000
     number of iterations used =            8  local-TF  mixing
     energy convergence thresh.=      1.0E-04
     force convergence thresh. =      1.0E-04
     Exchange-correlation= PBE
                           (   1   4   3   4   0   0   0)
     nstep                     =          200


     ================================================================================
 
                                  Environ Setup Summary

     ================================================================================
 
     Please cite

          O. Andreussi, I. Dabo and N. Marzari, J. Chem. Phys. 136, 064102 (2012)

     in publications or presentations arising from this work.

     ================================================================================
 
     Parameters
     ==========

     compensation onset threshold      =               0.1000E+00
     static permittivity               =                    78.30
     surface tension in input (dyn/cm) =                    47.90
     surface tension in internal units =               0.6153E-04
     external pressure in input (GPa)  =                    -0.36
     external pressure in inter. units =              -0.2447E-04

     Solvent Boundary
     ================

     solvent mode                      =               electronic
     derivatives method                =                    chain
     numerical core for derivatives    =                      fft
     switching function adopted        =                     SCCS
     density limit for vacuum region   =               0.5000E-02
     density limit for bulk solvent    =               0.1000E-03

     Electrostatic Setup
     ===================

     electrostatic problem to solve    =              generalized
     numerical solver adopted          =                       cg
     type of auxiliary density adopted =                     none
     numerical core for poisson        =                      fft
     type of pbc corrections           =                parabolic
     numerical core for corrections    =                      1da

     ================================================================================
 

     celldm(1)=  12.104053  celldm(2)=   0.000000  celldm(3)=   0.000000
     celldm(4)=   0.000000  celldm(5)=   0.000000  celldm(6)=   0.000000

     crystal axes: (cart. coord. in units of alat)
               a(1) = (   1.000000   0.000000   0.000000 )  
               a(2) = (   0.000000   0.971735   0.000000 )  
               a(3) = (   0.000000   0.000000   3.455479 )  

     reciprocal axes: (cart. coord. in units 2 pi/alat)
               b(1) = (  1.000000  0.000000  0.000000 )  
               b(2) = (  0.000000  1.029087  0.000000 )  
               b(3) = (  0.000000  0.000000  0.289395 )  


     PseudoPot. # 1 for O  read from file:
     /gpfs/group/ixd4/default/Simon/pseudopotentials/materialscloud/SSSP_1.3.0_PBE_efficiency/O.pbe-n-kjpaw_psl.0.1.UPF
     MD5 check sum: 0234752ac141de4415c5fc33072bef88
     Pseudo is Projector augmented-wave + core cor, Zval =  6.0
     Generated using "atomic" code by A. Dal Corso  v.5.0.99 svn rev. 10869
     Shape of augmentation charge: BESSEL
     Using radial grid of 1095 points,  4 beta functions with: 
                l(1) =   0
                l(2) =   0
                l(3) =   1
                l(4) =   1
     Q(r) pseudized with 0 coefficients 


     PseudoPot. # 2 for Ru read from file:
     /gpfs/group/ixd4/default/Simon/pseudopotentials/materialscloud/SSSP_1.3.0_PBE_efficiency/Ru_ONCV_PBE-1.0.oncvpsp.upf
     MD5 check sum: be037bb81c227cfb9b1461a9f099f4bd
     Pseudo is Norm-conserving, Zval = 16.0
     Generated using ONCVPSP code by D. R. Hamann
     Using radial grid of 1458 points,  6 beta functions with: 
                l(1) =   0
                l(2) =   0
                l(3) =   1
                l(4) =   1
                l(5) =   2
                l(6) =   2

     PseudoPot. # 3 for H  read from file:
     /gpfs/group/ixd4/default/Simon/pseudopotentials/materialscloud/SSSP_1.3.0_PBE_efficiency/H.pbe-rrkjus_psl.1.0.0.UPF
     MD5 check sum: f52b6d4d1c606e5624b1dc7b2218f220
     Pseudo is Ultrasoft, Zval =  1.0
     Generated using "atomic" code by A. Dal Corso  v.5.1
     Using radial grid of  929 points,  2 beta functions with: 
                l(1) =   0
                l(2) =   0
     Q(r) pseudized with 0 coefficients 


     atomic species   valence    mass     pseudopotential
        O              6.00    15.99940     O ( 1.00)
        Ru            16.00   101.07000     Ru( 1.00)
        H              1.00     1.00794     H ( 1.00)

      2 Sym. Ops. (no inversion) found



   Cartesian axes

     site n.     atom                  positions (alat units)
         1           O   tau(   1) = (   0.0070050   0.4889137   0.9387817  )
         2           O   tau(   2) = (   0.4780830   0.4885794   0.9466859  )
         3           O   tau(   3) = (  -0.0008723   0.0007708   1.0672299  )
         4           O   tau(   4) = (   0.4968080  -0.0012783   1.0368250  )
         5           Ru  tau(   5) = (   0.2439411   0.0026468   1.2331181  )
         6           Ru  tau(   6) = (   0.7519411   0.0028923   1.2305752  )
         7           O   tau(   7) = (   0.2475600   0.2980941   1.2408524  )
         8           O   tau(   8) = (   0.7517832   0.3018019   1.2323204  )
         9           Ru  tau(   9) = (   0.0021863   0.4883674   1.2373877  )
        10           Ru  tau(  10) = (   0.5036744   0.4889436   1.2139446  )
        11           O   tau(  11) = (   0.2472539   0.6782989   1.2417558  )
        12           O   tau(  12) = (   0.7520493   0.6746741   1.2338873  )
        13           O   tau(  13) = (  -0.0035063   0.0016439   1.4236290  )
        14           O   tau(  14) = (   0.5016083   0.0021964   1.4251304  )
        15           O   tau(  15) = (  -0.0000773   0.4876342   1.5422318  )
        16           O   tau(  16) = (   0.4963743   0.4878467   1.5236564  )
        17           Ru  tau(  17) = (  -0.0047399   0.0024012   1.7277432  )
        18           Ru  tau(  18) = (   0.5013209   0.0015125   1.7277432  )
        19           O   tau(  19) = (   0.2503017   0.1871416   1.7277432  )
        20           O   tau(  20) = (   0.7467070   0.1940107   1.7277432  )
        21           Ru  tau(  21) = (   0.2552587   0.4875580   1.7277432  )
        22           Ru  tau(  22) = (   0.7439240   0.4876789   1.7277432  )
        23           O   tau(  23) = (   0.2503588   0.7884583   1.7277432  )
        24           O   tau(  24) = (   0.7465549   0.7814937   1.7277432  )
        25           O   tau(  25) = (  -0.0000773   0.4876342   1.9132511  )
        26           O   tau(  26) = (   0.4963743   0.4878467   1.9318265  )
        27           O   tau(  27) = (  -0.0035063   0.0016439   2.0318539  )
        28           O   tau(  28) = (   0.5016083   0.0021964   2.0303525  )
        29           Ru  tau(  29) = (   0.2439411   0.0026468   2.2223649  )
        30           Ru  tau(  30) = (   0.7519411   0.0028923   2.2249077  )
        31           O   tau(  31) = (   0.2475600   0.2980941   2.2146306  )
        32           O   tau(  32) = (   0.7517832   0.3018019   2.2231625  )
        33           Ru  tau(  33) = (   0.0021863   0.4883674   2.2180952  )
        34           Ru  tau(  34) = (   0.5036744   0.4889436   2.2415383  )
        35           O   tau(  35) = (   0.2472539   0.6782989   2.2137272  )
        36           O   tau(  36) = (   0.7520493   0.6746741   2.2215957  )
        37           O   tau(  37) = (  -0.0008723   0.0007708   2.3882565  )
        38           O   tau(  38) = (   0.4968080  -0.0012783   2.4186614  )
        39           O   tau(  39) = (   0.0070050   0.4889137   2.5167012  )
        40           O   tau(  40) = (   0.4780830   0.4885794   2.5087971  )
        41           H   tau(  41) = (   0.1511892   0.4917920   0.8841933  )
        42           H   tau(  42) = (   0.1511892   0.4917920   2.5712862  )
        43           H   tau(  43) = (   0.4957906   0.0641910   0.9006135  )
        44           H   tau(  44) = (   0.4957906   0.0641910   2.5548660  )

     number of k points=     2  Marzari-Vanderbilt smearing, width (Ry)=  0.0300
                       cart. coord. in units 2pi/alat
        k(    1) = (   0.2500000   0.2572717   0.0000000), wk =   1.0000000
        k(    2) = (  -0.2500000   0.2572717   0.0000000), wk =   1.0000000

     Dense  grid:  1123933 G-vectors     FFT dimensions: (  90,  90, 300)

     Smooth grid:   284439 G-vectors     FFT dimensions: (  60,  54, 192)

     Estimated max dynamical RAM per process >     184.58 MB

     Estimated total dynamical RAM >       3.61 GB

     Check: negative core charge=   -0.000001

     Initial potential from superposition of free atoms

     starting charge     363.9933, renormalised to     364.0000

     add environment contribution to local potential
     Polarization accuracy = 8.5E-12, # of iterations =  24

     negative rho (up, down):  3.170E-05 0.000E+00
     Starting wfcs are  236 randomized atomic wfcs
     Checking if some PAW data can be deallocated... 

     total cpu time spent up to now is     1018.5 secs

     per-process dynamical memory:   156.8 Mb

     Self-consistent Calculation

     iteration #  1     ecut=    50.00 Ry     beta= 0.70
     Davidson diagonalization with overlap
     ethr =  1.00E-02,  avg # of iterations =  2.0

     total cpu time spent up to now is     1253.6 secs

     total energy              =   -3430.26191923 Ry
     estimated scf accuracy    <      10.03998098 Ry
     electrostatic embedding   =      -0.00181255 Ry
     cavitation energy         =       0.02027336 Ry
     PV energy                 =      -0.08470167 Ry
     correction to one-el term =     213.05402977 Ry

     iteration #  2     ecut=    50.00 Ry     beta= 0.70
     Davidson diagonalization with overlap
     ethr =  2.76E-03,  avg # of iterations =  2.0

     total cpu time spent up to now is     1567.3 secs

     total energy              =   -3432.51076214 Ry
     estimated scf accuracy    <       2.20008845 Ry
     electrostatic embedding   =      -0.00260607 Ry
     cavitation energy         =       0.02035952 Ry
     PV energy                 =      -0.08486951 Ry
     correction to one-el term =     213.05617664 Ry

     iteration #  3     ecut=    50.00 Ry     beta= 0.70
     Davidson diagonalization with overlap
     ethr =  6.04E-04,  avg # of iterations =  1.0

     total cpu time spent up to now is     1887.6 secs

     total energy              =   -3432.71450187 Ry
     estimated scf accuracy    <       0.62926596 Ry
     electrostatic embedding   =      -0.00295262 Ry
     cavitation energy         =       0.02043553 Ry
     PV energy                 =      -0.08492772 Ry
     correction to one-el term =     213.05707079 Ry

     iteration #  4     ecut=    50.00 Ry     beta= 0.70
     Davidson diagonalization with overlap
     ethr =  1.73E-04,  avg # of iterations =  1.0

     total cpu time spent up to now is     2169.6 secs

     total energy              =   -3432.76117551 Ry
     estimated scf accuracy    <       0.29571491 Ry
     electrostatic embedding   =      -0.00302223 Ry
     cavitation energy         =       0.02057951 Ry
     PV energy                 =      -0.08450085 Ry
     correction to one-el term =     213.05700065 Ry

     iteration #  5     ecut=    50.00 Ry     beta= 0.70
     Davidson diagonalization with overlap
     ethr =  8.12E-05,  avg # of iterations =  1.0

     total cpu time spent up to now is     2463.3 secs

     total energy              =   -3432.75984465 Ry
     estimated scf accuracy    <       0.10579339 Ry
     electrostatic embedding   =      -0.00315548 Ry
     cavitation energy         =       0.02090620 Ry
     PV energy                 =      -0.08375028 Ry
     correction to one-el term =     213.05696671 Ry

     iteration #  6     ecut=    50.00 Ry     beta= 0.70
     Davidson diagonalization with overlap
     ethr =  2.91E-05,  avg # of iterations =  2.0

     add environment contribution to local potential
     Polarization accuracy = 8.4E-12, # of iterations =  38

     total cpu time spent up to now is     2799.8 secs

     total energy              =   -3432.75819835 Ry
     estimated scf accuracy    <       0.08349408 Ry
     electrostatic embedding   =      -0.00318804 Ry
     cavitation energy         =       0.02126112 Ry
     PV energy                 =      -0.08288153 Ry
     correction to one-el term =     213.05667360 Ry

     iteration #  7     ecut=    50.00 Ry     beta= 0.70
     Davidson diagonalization with overlap
     ethr =  2.29E-05,  avg # of iterations =  2.5

     add environment contribution to local potential
     Polarization accuracy = 3.1E-12, # of iterations =  41

     total cpu time spent up to now is     3078.8 secs

     total energy              =   -3432.79181060 Ry
     estimated scf accuracy    <       0.05261635 Ry
     electrostatic embedding   =      -0.03658237 Ry
     cavitation energy         =       0.02148077 Ry
     PV energy                 =      -0.08229042 Ry
     correction to one-el term =     187.80066429 Ry

     iteration #  8     ecut=    50.00 Ry     beta= 0.70
     Davidson diagonalization with overlap
     ethr =  1.45E-05,  avg # of iterations =  4.5

     add environment contribution to local potential
     Polarization accuracy = 8.4E-12, # of iterations =  43

     total cpu time spent up to now is     3396.5 secs

     total energy              =   -3432.78978663 Ry
     estimated scf accuracy    <       0.02616750 Ry
     electrostatic embedding   =      -0.04015163 Ry
     cavitation energy         =       0.02161333 Ry
     PV energy                 =      -0.08192712 Ry
     correction to one-el term =     186.67624472 Ry

     iteration #  9     ecut=    50.00 Ry     beta= 0.70
     Davidson diagonalization with overlap
     ethr =  7.19E-06,  avg # of iterations =  9.0

     add environment contribution to local potential
     Polarization accuracy = 7.7E-12, # of iterations =  50

     total cpu time spent up to now is     3661.6 secs

     total energy              =   -3432.78892268 Ry
     estimated scf accuracy    <       0.02111460 Ry
     electrostatic embedding   =      -0.04818159 Ry
     cavitation energy         =       0.02183388 Ry
     PV energy                 =      -0.08131780 Ry
     correction to one-el term =     184.88735773 Ry

     iteration # 10     ecut=    50.00 Ry     beta= 0.70
     Davidson diagonalization with overlap
     ethr =  5.80E-06,  avg # of iterations =  2.0

     negative rho (up, down):  1.103E-05 0.000E+00

     add environment contribution to local potential
     Polarization accuracy = 5.9E-12, # of iterations =  51

     total cpu time spent up to now is     3964.5 secs

     total energy              =   -3432.79232474 Ry
     estimated scf accuracy    <       0.03486647 Ry
     electrostatic embedding   =      -0.06616791 Ry
     cavitation energy         =       0.02205100 Ry
     PV energy                 =      -0.08057543 Ry
     correction to one-el term =     182.85799597 Ry

     iteration # 11     ecut=    50.00 Ry     beta= 0.70
     Davidson diagonalization with overlap
     ethr =  5.80E-06,  avg # of iterations =  2.0

     negative rho (up, down):  5.087E-05 0.000E+00

     add environment contribution to local potential
     Polarization accuracy = 6.5E-12, # of iterations =  50

     total cpu time spent up to now is     4238.7 secs

     total energy              =   -3432.79267424 Ry
     estimated scf accuracy    <       0.01630614 Ry
     electrostatic embedding   =      -0.07081194 Ry
     cavitation energy         =       0.02197309 Ry
     PV energy                 =      -0.08055281 Ry
     correction to one-el term =     183.06142353 Ry

     iteration # 12     ecut=    50.00 Ry     beta= 0.70
     Davidson diagonalization with overlap
     ethr =  4.48E-06,  avg # of iterations =  1.0

     negative rho (up, down):  5.980E-04 0.000E+00

     add environment contribution to local potential
     Polarization accuracy = 8.8E-12, # of iterations =  51

     total cpu time spent up to now is     4517.4 secs

     total energy              =   -3432.79342598 Ry
     estimated scf accuracy    <       0.01055778 Ry
     electrostatic embedding   =      -0.07149106 Ry
     cavitation energy         =       0.02184035 Ry
     PV energy                 =      -0.08065789 Ry
     correction to one-el term =     183.92457439 Ry

     iteration # 13     ecut=    50.00 Ry     beta= 0.70
     Davidson diagonalization with overlap
     ethr =  2.90E-06,  avg # of iterations =  2.0

     negative rho (up, down):  2.218E-05 0.000E+00

     add environment contribution to local potential
     Polarization accuracy = 7.8E-12, # of iterations =  49

     total cpu time spent up to now is     4820.6 secs

     total energy              =   -3432.79337944 Ry
     estimated scf accuracy    <       0.00805709 Ry
     electrostatic embedding   =      -0.07591842 Ry
     cavitation energy         =       0.02179125 Ry
     PV energy                 =      -0.08062772 Ry
     correction to one-el term =     184.21038629 Ry

     iteration # 14     ecut=    50.00 Ry     beta= 0.70
     Davidson diagonalization with overlap
     ethr =  2.21E-06,  avg # of iterations =  1.0

     negative rho (up, down):  2.303E-05 0.000E+00

     add environment contribution to local potential
     Polarization accuracy = 6.0E-12, # of iterations =  48

     total cpu time spent up to now is     5100.6 secs

     total energy              =   -3432.79395246 Ry
     estimated scf accuracy    <       0.00424769 Ry
     electrostatic embedding   =      -0.07271847 Ry
     cavitation energy         =       0.02166670 Ry
     PV energy                 =      -0.08081198 Ry
     correction to one-el term =     185.34647010 Ry

     iteration # 15     ecut=    50.00 Ry     beta= 0.70
     Davidson diagonalization with overlap
     ethr =  1.17E-06,  avg # of iterations =  1.0

     negative rho (up, down):  5.758E-05 0.000E+00

     add environment contribution to local potential
     Polarization accuracy = 7.4E-12, # of iterations =  45

     total cpu time spent up to now is     5401.6 secs

     total energy              =   -3432.79417716 Ry
     estimated scf accuracy    <       0.00221991 Ry
     electrostatic embedding   =      -0.07192432 Ry
     cavitation energy         =       0.02158192 Ry
     PV energy                 =      -0.08090640 Ry
     correction to one-el term =     186.33333897 Ry

     iteration # 16     ecut=    50.00 Ry     beta= 0.70
     Davidson diagonalization with overlap
     ethr =  6.10E-07,  avg # of iterations =  2.0

     negative rho (up, down):  5.994E-04 0.000E+00

     add environment contribution to local potential
     Polarization accuracy = 5.6E-12, # of iterations =  45

     total cpu time spent up to now is     5675.8 secs

     total energy              =   -3432.79470766 Ry
     estimated scf accuracy    <       0.00043775 Ry
     electrostatic embedding   =      -0.06706934 Ry
     cavitation energy         =       0.02147900 Ry
     PV energy                 =      -0.08108681 Ry
     correction to one-el term =     187.61347015 Ry

     iteration # 17     ecut=    50.00 Ry     beta= 0.70
     Davidson diagonalization with overlap
     ethr =  1.20E-07,  avg # of iterations =  3.0

     negative rho (up, down):  3.809E-04 0.000E+00

     add environment contribution to local potential
     Polarization accuracy = 9.8E-12, # of iterations =  45

     total cpu time spent up to now is     6025.1 secs

     total energy              =   -3432.79487016 Ry
     estimated scf accuracy    <       0.00012720 Ry
     electrostatic embedding   =      -0.06471378 Ry
     cavitation energy         =       0.02148617 Ry
     PV energy                 =      -0.08109044 Ry
     correction to one-el term =     188.06060392 Ry

     iteration # 18     ecut=    50.00 Ry     beta= 0.70
     Davidson diagonalization with overlap
     ethr =  3.49E-08,  avg # of iterations =  3.0

     negative rho (up, down):  2.988E-04 0.000E+00

     add environment contribution to local potential
     Polarization accuracy = 8.3E-12, # of iterations =  46

     total cpu time spent up to now is     6407.5 secs

     total energy              =   -3432.79499896 Ry
     estimated scf accuracy    <       0.00007281 Ry
     electrostatic embedding   =      -0.06264251 Ry
     cavitation energy         =       0.02151302 Ry
     PV energy                 =      -0.08107046 Ry
     correction to one-el term =     188.20071894 Ry

     iteration # 19     ecut=    50.00 Ry     beta= 0.70
     Davidson diagonalization with overlap
     ethr =  2.00E-08,  avg # of iterations =  2.0

     negative rho (up, down):  1.456E-03 0.000E+00

     add environment contribution to local potential
     Polarization accuracy = 8.1E-12, # of iterations =  46

     total cpu time spent up to now is     6664.8 secs

     total energy              =   -3432.79504541 Ry
     estimated scf accuracy    <       0.00004329 Ry
     electrostatic embedding   =      -0.06218494 Ry
     cavitation energy         =       0.02152594 Ry
     PV energy                 =      -0.08104822 Ry
     correction to one-el term =     188.23518070 Ry

     iteration # 20     ecut=    50.00 Ry     beta= 0.70
     Davidson diagonalization with overlap
     ethr =  1.19E-08,  avg # of iterations =  4.0

     negative rho (up, down):  8.470E-04 0.000E+00

     add environment contribution to local potential
     Polarization accuracy = 3.2E-12, # of iterations =  47

     total cpu time spent up to now is     6874.1 secs

     total energy              =   -3432.79509286 Ry
     estimated scf accuracy    <       0.00001508 Ry
     electrostatic embedding   =      -0.06098343 Ry
     cavitation energy         =       0.02153343 Ry
     PV energy                 =      -0.08103577 Ry
     correction to one-el term =     188.42494694 Ry

     iteration # 21     ecut=    50.00 Ry     beta= 0.70
     Davidson diagonalization with overlap
     ethr =  4.14E-09,  avg # of iterations =  4.0

     negative rho (up, down):  3.281E-04 0.000E+00

     add environment contribution to local potential
     Polarization accuracy = 6.9E-12, # of iterations =  47

     total cpu time spent up to now is     7196.3 secs

     total energy              =   -3432.79511596 Ry
     estimated scf accuracy    <       0.00000893 Ry
     electrostatic embedding   =      -0.06034354 Ry
     cavitation energy         =       0.02154574 Ry
     PV energy                 =      -0.08101748 Ry
     correction to one-el term =     188.44340965 Ry

     iteration # 22     ecut=    50.00 Ry     beta= 0.70
     Davidson diagonalization with overlap
     ethr =  2.45E-09,  avg # of iterations =  4.0

     negative rho (up, down):  3.627E-04 0.000E+00

     add environment contribution to local potential
     Polarization accuracy = 7.2E-12, # of iterations =  47

     total cpu time spent up to now is     7422.7 secs

     total energy              =   -3432.79513157 Ry
     estimated scf accuracy    <       0.00000301 Ry
     electrostatic embedding   =      -0.05992259 Ry
     cavitation energy         =       0.02155400 Ry
     PV energy                 =      -0.08099929 Ry
     correction to one-el term =     188.44418539 Ry

     iteration # 23     ecut=    50.00 Ry     beta= 0.70
     Davidson diagonalization with overlap
     ethr =  8.28E-10,  avg # of iterations =  3.0

     negative rho (up, down):  2.595E-04 0.000E+00

     add environment contribution to local potential
     Polarization accuracy = 6.5E-12, # of iterations =  47

     total cpu time spent up to now is     7700.7 secs

     total energy              =   -3432.79513415 Ry
     estimated scf accuracy    <       0.00000200 Ry
     electrostatic embedding   =      -0.05969332 Ry
     cavitation energy         =       0.02155393 Ry
     PV energy                 =      -0.08100038 Ry
     correction to one-el term =     188.46177994 Ry

     iteration # 24     ecut=    50.00 Ry     beta= 0.70
     Davidson diagonalization with overlap
     ethr =  5.50E-10,  avg # of iterations =  3.0

     negative rho (up, down):  1.912E-04 0.000E+00

     add environment contribution to local potential
     Polarization accuracy = 7.3E-12, # of iterations =  46

     total cpu time spent up to now is     8022.5 secs

     total energy              =   -3432.79513546 Ry
     estimated scf accuracy    <       0.00000127 Ry
     electrostatic embedding   =      -0.05960255 Ry
     cavitation energy         =       0.02155366 Ry
     PV energy                 =      -0.08099991 Ry
     correction to one-el term =     188.45590057 Ry

     iteration # 25     ecut=    50.00 Ry     beta= 0.70
     Davidson diagonalization with overlap
     ethr =  3.49E-10,  avg # of iterations =  3.0

     negative rho (up, down):  1.591E-04 0.000E+00

     add environment contribution to local potential
     Polarization accuracy = 4.2E-12, # of iterations =  47

     total cpu time spent up to now is     8345.1 secs

     total energy              =   -3432.79513640 Ry
     estimated scf accuracy    <       0.00000039 Ry
     electrostatic embedding   =      -0.05941861 Ry
     cavitation energy         =       0.02155413 Ry
     PV energy                 =      -0.08100167 Ry
     correction to one-el term =     188.45959515 Ry

     iteration # 26     ecut=    50.00 Ry     beta= 0.70
     Davidson diagonalization with overlap
     ethr =  1.08E-10,  avg # of iterations =  2.0

     negative rho (up, down):  1.475E-04 0.000E+00

     add environment contribution to local potential
     Polarization accuracy = 8.5E-12, # of iterations =  46

     total cpu time spent up to now is     8579.2 secs

     total energy              =   -3432.79513659 Ry
     estimated scf accuracy    <       0.00000041 Ry
     electrostatic embedding   =      -0.05940779 Ry
     cavitation energy         =       0.02155380 Ry
     PV energy                 =      -0.08100301 Ry
     correction to one-el term =     188.45591139 Ry

     iteration # 27     ecut=    50.00 Ry     beta= 0.70
     Davidson diagonalization with overlap
     ethr =  1.08E-10,  avg # of iterations =  2.0

     negative rho (up, down):  1.441E-04 0.000E+00

     add environment contribution to local potential
     Polarization accuracy = 3.9E-12, # of iterations =  47

     total cpu time spent up to now is     8847.6 secs

     total energy              =   -3432.79513682 Ry
     estimated scf accuracy    <       0.00000013 Ry
     electrostatic embedding   =      -0.05938239 Ry
     cavitation energy         =       0.02155339 Ry
     PV energy                 =      -0.08100505 Ry
     correction to one-el term =     188.45590953 Ry

     iteration # 28     ecut=    50.00 Ry     beta= 0.70
     Davidson diagonalization with overlap
     ethr =  3.54E-11,  avg # of iterations =  3.0

     negative rho (up, down):  1.450E-04 0.000E+00

     add environment contribution to local potential
     Polarization accuracy = 3.5E-12, # of iterations =  47

     total cpu time spent up to now is     9213.6 secs

     total energy              =   -3432.79513712 Ry
     estimated scf accuracy    <       0.00000008 Ry
     electrostatic embedding   =      -0.05932643 Ry
     cavitation energy         =       0.02155383 Ry
     PV energy                 =      -0.08100537 Ry
     correction to one-el term =     188.46084723 Ry

     iteration # 29     ecut=    50.00 Ry     beta= 0.70
     Davidson diagonalization with overlap
     ethr =  2.26E-11,  avg # of iterations =  2.0

     negative rho (up, down):  1.438E-04 0.000E+00

     add environment contribution to local potential
     Polarization accuracy = 4.9E-12, # of iterations =  47

     total cpu time spent up to now is     9528.4 secs

     total energy              =   -3432.79513743 Ry
     estimated scf accuracy    <       0.00000009 Ry
     electrostatic embedding   =      -0.05933841 Ry
     cavitation energy         =       0.02155398 Ry
     PV energy                 =      -0.08100535 Ry
     correction to one-el term =     188.46160607 Ry

     iteration # 30     ecut=    50.00 Ry     beta= 0.70
     Davidson diagonalization with overlap
     ethr =  2.26E-11,  avg # of iterations =  2.0

     negative rho (up, down):  1.463E-04 0.000E+00

     add environment contribution to local potential
     Polarization accuracy = 4.5E-12, # of iterations =  46

     total cpu time spent up to now is     9803.0 secs

     total energy              =   -3432.79513770 Ry
     estimated scf accuracy    <       0.00000007 Ry
     electrostatic embedding   =      -0.05932397 Ry
     cavitation energy         =       0.02155405 Ry
     PV energy                 =      -0.08100554 Ry
     correction to one-el term =     188.46318457 Ry

     iteration # 31     ecut=    50.00 Ry     beta= 0.70
     Davidson diagonalization with overlap
     ethr =  1.87E-11,  avg # of iterations =  2.0

     negative rho (up, down):  1.488E-04 0.000E+00

     add environment contribution to local potential
     Polarization accuracy = 5.0E-12, # of iterations =  47

     total cpu time spent up to now is    10161.5 secs

     total energy              =   -3432.79513787 Ry
     estimated scf accuracy    <       0.00000006 Ry
     electrostatic embedding   =      -0.05931662 Ry
     cavitation energy         =       0.02155408 Ry
     PV energy                 =      -0.08100542 Ry
     correction to one-el term =     188.46430824 Ry

     iteration # 32     ecut=    50.00 Ry     beta= 0.70
     Davidson diagonalization with overlap
     ethr =  1.62E-11,  avg # of iterations =  2.0

     negative rho (up, down):  1.559E-04 0.000E+00

     add environment contribution to local potential
     Polarization accuracy = 6.5E-12, # of iterations =  46

     total cpu time spent up to now is    10389.4 secs

     total energy              =   -3432.79513827 Ry
     estimated scf accuracy    <       0.00000005 Ry
     electrostatic embedding   =      -0.05931035 Ry
     cavitation energy         =       0.02155414 Ry
     PV energy                 =      -0.08100534 Ry
     correction to one-el term =     188.46566561 Ry

     iteration # 33     ecut=    50.00 Ry     beta= 0.70
     Davidson diagonalization with overlap
     ethr =  1.51E-11,  avg # of iterations =  2.0

     negative rho (up, down):  1.653E-04 0.000E+00

     add environment contribution to local potential
     Polarization accuracy = 5.4E-12, # of iterations =  47

     total cpu time spent up to now is    10660.1 secs

     total energy              =   -3432.79513936 Ry
     estimated scf accuracy    <       0.00000006 Ry
     electrostatic embedding   =      -0.05930060 Ry
     cavitation energy         =       0.02155415 Ry
     PV energy                 =      -0.08100521 Ry
     correction to one-el term =     188.46805654 Ry

     iteration # 34     ecut=    50.00 Ry     beta= 0.70
     Davidson diagonalization with overlap
     ethr =  1.51E-11,  avg # of iterations =  2.0

     negative rho (up, down):  1.741E-04 0.000E+00

     add environment contribution to local potential
     Polarization accuracy = 7.7E-12, # of iterations =  46

     total cpu time spent up to now is    11039.4 secs

     total energy              =   -3432.79514089 Ry
     estimated scf accuracy    <       0.00000005 Ry
     electrostatic embedding   =      -0.05929200 Ry
     cavitation energy         =       0.02155410 Ry
     PV energy                 =      -0.08100502 Ry
     correction to one-el term =     188.47013114 Ry

     iteration # 35     ecut=    50.00 Ry     beta= 0.70
     Davidson diagonalization with overlap
     ethr =  1.24E-11,  avg # of iterations =  2.0

     negative rho (up, down):  1.820E-04 0.000E+00

     add environment contribution to local potential
     Polarization accuracy = 5.4E-12, # of iterations =  47

     total cpu time spent up to now is    11388.5 secs

     total energy              =   -3432.79514271 Ry
     estimated scf accuracy    <       0.00000004 Ry
     electrostatic embedding   =      -0.05928897 Ry
     cavitation energy         =       0.02155397 Ry
     PV energy                 =      -0.08100489 Ry
     correction to one-el term =     188.47091115 Ry

     iteration # 36     ecut=    50.00 Ry     beta= 0.70
     Davidson diagonalization with overlap
     ethr =  1.23E-11,  avg # of iterations =  2.0

     negative rho (up, down):  1.855E-04 0.000E+00

     add environment contribution to local potential
     Polarization accuracy = 4.8E-12, # of iterations =  46

     total cpu time spent up to now is    11650.1 secs

     total energy              =   -3432.79514542 Ry
     estimated scf accuracy    <       0.00000004 Ry
     electrostatic embedding   =      -0.05927905 Ry
     cavitation energy         =       0.02155396 Ry
     PV energy                 =      -0.08100489 Ry
     correction to one-el term =     188.47299810 Ry

     iteration # 37     ecut=    50.00 Ry     beta= 0.70
     Davidson diagonalization with overlap
     ethr =  1.04E-11,  avg # of iterations =  3.0

     negative rho (up, down):  1.765E-04 0.000E+00

     add environment contribution to local potential
     Polarization accuracy = 4.5E-12, # of iterations =  47

     total cpu time spent up to now is    11896.1 secs

     total energy              =   -3432.79514994 Ry
     estimated scf accuracy    <       0.00000004 Ry
     electrostatic embedding   =      -0.05928868 Ry
     cavitation energy         =       0.02155380 Ry
     PV energy                 =      -0.08100498 Ry
     correction to one-el term =     188.47173717 Ry

     iteration # 38     ecut=    50.00 Ry     beta= 0.70
     Davidson diagonalization with overlap
     ethr =  1.04E-11,  avg # of iterations =  3.0

     negative rho (up, down):  1.631E-04 0.000E+00

     add environment contribution to local potential
     Polarization accuracy = 4.2E-12, # of iterations =  47

     total cpu time spent up to now is    12178.5 secs

     total energy              =   -3432.79515194 Ry
     estimated scf accuracy    <       0.00000004 Ry
     electrostatic embedding   =      -0.05930676 Ry
     cavitation energy         =       0.02155372 Ry
     PV energy                 =      -0.08100512 Ry
     correction to one-el term =     188.46818157 Ry

     iteration # 39     ecut=    50.00 Ry     beta= 0.70
     Davidson diagonalization with overlap
     ethr =  1.04E-11,  avg # of iterations =  3.0

     negative rho (up, down):  1.608E-04 0.000E+00

     add environment contribution to local potential
     Polarization accuracy = 4.0E-12, # of iterations =  47

     total cpu time spent up to now is    12530.3 secs

     total energy              =   -3432.79515686 Ry
     estimated scf accuracy    <       0.00000002 Ry
     electrostatic embedding   =      -0.05932254 Ry
     cavitation energy         =       0.02155377 Ry
     PV energy                 =      -0.08100533 Ry
     correction to one-el term =     188.46512218 Ry

     iteration # 40     ecut=    50.00 Ry     beta= 0.70
     Davidson diagonalization with overlap
     ethr =  5.40E-12,  avg # of iterations =  5.0

     negative rho (up, down):  1.517E-04 0.000E+00

     add environment contribution to local potential
     Polarization accuracy = 4.5E-12, # of iterations =  46

     total cpu time spent up to now is    12869.3 secs

     total energy              =   -3432.79516130 Ry
     estimated scf accuracy    <       0.00000001 Ry
     electrostatic embedding   =      -0.05932043 Ry
     cavitation energy         =       0.02155387 Ry
     PV energy                 =      -0.08100525 Ry
     correction to one-el term =     188.46568247 Ry

     iteration # 41     ecut=    50.00 Ry     beta= 0.70
     Davidson diagonalization with overlap
     ethr =  3.16E-12,  avg # of iterations =  2.0

     negative rho (up, down):  1.492E-04 0.000E+00

     add environment contribution to local potential
     Polarization accuracy = 9.5E-12, # of iterations =  46

     total cpu time spent up to now is    13110.4 secs

     total energy              =   -3432.79516223 Ry
     estimated scf accuracy    <          5.5E-09 Ry
     electrostatic embedding   =      -0.05932307 Ry
     cavitation energy         =       0.02155400 Ry
     PV energy                 =      -0.08100525 Ry
     correction to one-el term =     188.46484404 Ry

     iteration # 42     ecut=    50.00 Ry     beta= 0.70
     Davidson diagonalization with overlap
     ethr =  1.52E-12,  avg # of iterations =  2.0

     negative rho (up, down):  1.521E-04 0.000E+00

     add environment contribution to local potential
     Polarization accuracy = 4.0E-12, # of iterations =  47

     total cpu time spent up to now is    13435.7 secs

     total energy              =   -3432.79516281 Ry
     estimated scf accuracy    <          1.5E-09 Ry
     electrostatic embedding   =      -0.05932425 Ry
     cavitation energy         =       0.02155402 Ry
     PV energy                 =      -0.08100529 Ry
     correction to one-el term =     188.46437774 Ry

     iteration # 43     ecut=    50.00 Ry     beta= 0.70
     Davidson diagonalization with overlap
     ethr =  4.08E-13,  avg # of iterations =  5.0

     negative rho (up, down):  1.531E-04 0.000E+00

     the potential shift due to the Gaussian-smeared nuclei is    -1.3065 ev

     total cpu time spent up to now is    13681.6 secs

     End of self-consistent calculation

          k = 0.2500 0.2573 0.0000 ( 35510 PWs)   bands (ev):

   -78.5365 -78.5232 -78.0452 -78.0325 -77.9773 -77.9646 -77.8209 -77.8080
   -77.6437 -77.6214 -77.5985 -77.5150 -49.0844 -49.0711 -48.3799 -48.3667
   -48.2550 -48.2423 -48.1670 -48.1539 -48.1366 -48.1296 -48.1237 -48.1167
   -48.0490 -48.0363 -47.9505 -47.9380 -47.9045 -47.9019 -47.8868 -47.8761
   -47.8354 -47.8201 -47.8076 -47.7738 -47.7142 -47.7014 -47.5893 -47.5890
   -47.5764 -47.5683 -47.5141 -47.4664 -47.4432 -47.4315 -47.4225 -47.3237
   -24.1175 -24.0096 -23.8120 -23.6913 -23.6184 -23.4795 -23.3826 -23.3576
   -23.2382 -23.1819 -23.1716 -23.0921 -23.0494 -22.9916 -22.9095 -22.8726
   -22.8119 -22.7954 -22.7655 -22.7275 -22.6515 -22.6195 -22.5539 -22.5416
   -22.3479 -22.2353 -22.1287 -22.0660 -12.4207 -12.1728 -12.0908 -12.0557
   -11.9367 -11.7872 -11.5790 -11.5146 -11.4033 -11.3518 -11.3440 -11.2417
   -11.2175 -11.1217 -11.0961 -11.0817 -11.0635 -11.0329 -10.9562 -10.9061
   -10.8863 -10.8347 -10.7315 -10.6127 -10.4784 -10.2968 -10.2366 -10.1515
   -10.0985 -10.0554  -9.9407  -9.8539  -9.7704  -9.6358  -9.6244  -9.4521
    -9.4480  -9.3455  -9.2317  -9.2018  -9.0660  -9.0428  -8.9757  -8.9123
    -8.8770  -8.7916  -8.7090  -8.6741  -8.5693  -8.5238  -8.4456  -8.4235
    -8.3759  -8.3294  -8.3279  -8.2230  -8.1917  -8.1091  -8.0358  -8.0033
    -7.9448  -7.8749  -7.7238  -7.7124  -7.6669  -7.6050  -7.4508  -7.4078
    -7.3474  -7.2918  -7.1249  -7.0809  -7.0279  -6.9571  -6.9458  -6.8576
    -6.7757  -6.7527  -6.7047  -6.5929  -6.5518  -6.3661  -6.2276  -6.1399
    -5.3325  -5.3102  -5.2514  -5.2071  -5.1527  -5.0725  -5.0675  -5.0535
    -5.0074  -4.9527  -4.9182  -4.8653  -4.7816  -4.7435  -4.7349  -4.6787
    -4.6147  -4.4910  -4.4455  -4.4171  -4.3599  -4.2036  -4.1668  -4.1316
    -3.9528  -3.9419  -3.8264  -3.6648  -3.6160  -3.4411  -3.4282  -3.4022
    -3.3633  -3.3180  -3.1741  -2.9511  -2.2884  -2.1646  -2.1516  -1.9339
    -1.7993  -1.6632  -1.4378  -0.8681  -0.8165  -0.6726  -0.5492  -0.4815
    -0.4099  -0.3893  -0.3868  -0.1895  -0.1109   0.1386   0.2196   0.3536
     0.4667   0.4985

          k =-0.2500 0.2573 0.0000 ( 35510 PWs)   bands (ev):

   -78.5365 -78.5232 -78.0452 -78.0325 -77.9773 -77.9646 -77.8209 -77.8080
   -77.6437 -77.6214 -77.5985 -77.5150 -49.0844 -49.0711 -48.3799 -48.3667
   -48.2550 -48.2423 -48.1675 -48.1543 -48.1366 -48.1290 -48.1238 -48.1161
   -48.0492 -48.0365 -47.9505 -47.9380 -47.9045 -47.9019 -47.8868 -47.8761
   -47.8354 -47.8201 -47.8076 -47.7738 -47.7142 -47.7014 -47.5893 -47.5890
   -47.5764 -47.5683 -47.5141 -47.4664 -47.4432 -47.4315 -47.4226 -47.3237
   -24.1175 -24.0096 -23.8120 -23.6911 -23.6184 -23.4791 -23.3830 -23.3585
   -23.2380 -23.1815 -23.1707 -23.0912 -23.0502 -22.9927 -22.9115 -22.8727
   -22.8105 -22.7950 -22.7649 -22.7266 -22.6517 -22.6199 -22.5545 -22.5414
   -22.3479 -22.2355 -22.1286 -22.0659 -12.4223 -12.1797 -12.0880 -12.0473
   -11.9354 -11.7877 -11.5758 -11.5137 -11.4165 -11.3578 -11.3487 -11.2223
   -11.2124 -11.1464 -11.1039 -11.0883 -11.0449 -11.0215 -10.9481 -10.9100
   -10.8816 -10.8327 -10.7306 -10.6196 -10.4825 -10.2952 -10.2139 -10.1619
   -10.1099 -10.0504  -9.9405  -9.8641  -9.7770  -9.6405  -9.6361  -9.4504
    -9.4463  -9.3283  -9.2270  -9.2075  -9.0671  -9.0423  -8.9824  -8.8852
    -8.8732  -8.7943  -8.7071  -8.6815  -8.5730  -8.5300  -8.4351  -8.4275
    -8.3870  -8.3410  -8.3281  -8.1949  -8.1924  -8.1178  -8.0322  -7.9999
    -7.9374  -7.8814  -7.7243  -7.7200  -7.6664  -7.6308  -7.4431  -7.4051
    -7.3079  -7.2797  -7.1166  -7.0915  -7.0764  -6.9508  -6.9415  -6.8782
    -6.7850  -6.7536  -6.6874  -6.5834  -6.5438  -6.3607  -6.2337  -6.1405
    -5.3316  -5.3141  -5.2521  -5.1896  -5.1460  -5.0913  -5.0678  -5.0557
    -5.0077  -4.9472  -4.9181  -4.8643  -4.7873  -4.7417  -4.7338  -4.6795
    -4.6234  -4.4899  -4.4505  -4.4160  -4.3474  -4.2164  -4.1566  -4.1390
    -3.9478  -3.9407  -3.8278  -3.6629  -3.6175  -3.4416  -3.4290  -3.4006
    -3.3629  -3.3181  -3.1734  -2.9507  -2.2885  -2.1649  -2.1519  -1.9340
    -1.7986  -1.6632  -1.4377  -0.8674  -0.8168  -0.6720  -0.5499  -0.4824
    -0.4104  -0.3906  -0.3875  -0.1929  -0.1038   0.1381   0.2179   0.3530
     0.4680   0.4991

     the Fermi energy is    -4.2188 ev

!    total energy              =   -3432.79516370 Ry
     estimated scf accuracy    <          3.9E-10 Ry
     smearing contrib. (-TS)   =       0.04056861 Ry
     internal energy E=F+TS    =   -3432.83573231 Ry

     The total energy is F=E-TS. E is the sum of the following terms:
     one-electron contribution =  -25162.17709859 Ry
     hartree contribution      =   12560.47451386 Ry
     xc contribution           =    -445.99913046 Ry
     ewald contribution        =    9693.06951722 Ry
     one-center paw contrib.   =    -266.54998507 Ry
     electrostatic embedding   =      -0.05931923 Ry
     cavitation energy         =       0.02155401 Ry
     PV energy                 =      -0.08100525 Ry
     correction to one-el term =     188.46522119 Ry

     WARNING: you are using the parabolic pbc correction;
              the potential shift above must be added to 
              band and Fermi energies.

     convergence has been achieved in  43 iterations

     negative rho (up, down):  1.531E-04 0.000E+00

     Forces acting on atoms (cartesian axes, Ry/au):

     atom    1 type  1   force =     0.00559608    0.00013257   -0.00747429
     atom    2 type  1   force =    -0.00071960   -0.00024793   -0.01148256
     atom    3 type  1   force =     0.00055629   -0.00006627   -0.01371642
     atom    4 type  1   force =    -0.00003868   -0.00828350    0.01632354
     atom    5 type  2   force =    -0.00634058   -0.00088019    0.00078325
     atom    6 type  2   force =     0.00612783   -0.00141081    0.00199184
     atom    7 type  1   force =     0.00284082    0.02165774    0.00194008
     atom    8 type  1   force =    -0.00042563    0.01281536    0.00135639
     atom    9 type  2   force =    -0.00072138   -0.00088377   -0.00020911
     atom   10 type  2   force =    -0.00332403   -0.00031466    0.00518313
     atom   11 type  1   force =     0.00246127   -0.01961839    0.00184996
     atom   12 type  1   force =    -0.00000279   -0.01025590    0.00142432
     atom   13 type  1   force =    -0.00066255    0.00018968    0.00214286
     atom   14 type  1   force =     0.00066159    0.00018243   -0.00173804
     atom   15 type  1   force =    -0.00125951   -0.00015965   -0.00075929
     atom   16 type  1   force =     0.00191072   -0.00004112    0.00407921
     atom   17 type  2   force =     0.01059371   -0.00117608    0.00000000
     atom   18 type  2   force =    -0.01026525    0.00055614    0.00000000
     atom   19 type  1   force =    -0.00358630   -0.01312956    0.00000000
     atom   20 type  1   force =     0.00238694   -0.03509422    0.00000000
     atom   21 type  2   force =    -0.00656790    0.00101745    0.00000000
     atom   22 type  2   force =     0.00809226    0.00041910    0.00000000
     atom   23 type  1   force =    -0.00432555    0.01231390    0.00000000
     atom   24 type  1   force =     0.00320739    0.03482543    0.00000000
     atom   25 type  1   force =    -0.00125951   -0.00015965    0.00075929
     atom   26 type  1   force =     0.00191072   -0.00004112   -0.00407921
     atom   27 type  1   force =    -0.00066255    0.00018968   -0.00214286
     atom   28 type  1   force =     0.00066159    0.00018243    0.00173804
     atom   29 type  2   force =    -0.00634058   -0.00088019   -0.00078325
     atom   30 type  2   force =     0.00612783   -0.00141081   -0.00199184
     atom   31 type  1   force =     0.00284082    0.02165774   -0.00194008
     atom   32 type  1   force =    -0.00042563    0.01281536   -0.00135639
     atom   33 type  2   force =    -0.00072138   -0.00088377    0.00020911
     atom   34 type  2   force =    -0.00332403   -0.00031466   -0.00518313
     atom   35 type  1   force =     0.00246127   -0.01961839   -0.00184996
     atom   36 type  1   force =    -0.00000279   -0.01025590   -0.00142432
     atom   37 type  1   force =     0.00055629   -0.00006627    0.01371642
     atom   38 type  1   force =    -0.00003868   -0.00828350   -0.01632354
     atom   39 type  1   force =     0.00559608    0.00013257    0.00747429
     atom   40 type  1   force =    -0.00071960   -0.00024793    0.01148256
     atom   41 type  3   force =    -0.00630525   -0.00012441    0.00198294
     atom   42 type  3   force =    -0.00630525   -0.00012441   -0.00198294
     atom   43 type  3   force =    -0.00012226    0.00744274   -0.01649517
     atom   44 type  3   force =    -0.00012226    0.00744274    0.01649517
     The non-local contrib.  to forces
     atom    1 type  1   force =     1.74631928    0.02966627    0.44179546
     atom    2 type  1   force =     0.04777481   -0.01545219    1.25063921
     atom    3 type  1   force =     0.00907242    0.02141855    1.08477648
     atom    4 type  1   force =    -0.01240613    0.91541394   -0.67655075
     atom    5 type  2   force =    -0.04983237    0.00125475   -0.00568292
     atom    6 type  2   force =     0.05113984    0.00138568   -0.00970991
     atom    7 type  1   force =    -0.01235497   -0.00266795   -0.07988345
     atom    8 type  1   force =    -0.09842742    0.03292348   -0.00749812
     atom    9 type  2   force =     0.01421129   -0.00038168    0.02721914
     atom   10 type  2   force =    -0.01189880   -0.00015164   -0.06369910
     atom   11 type  1   force =    -0.01175597   -0.01311663   -0.08005571
     atom   12 type  1   force =    -0.09858113   -0.05365555   -0.01336974
     atom   13 type  1   force =    -0.00634868    0.02732910   -0.05668807
     atom   14 type  1   force =     0.02794019   -0.00212036    0.05361166
     atom   15 type  1   force =    -0.01136709    0.00098409    0.00397476
     atom   16 type  1   force =    -0.00290325   -0.00247864    0.24558155
     atom   17 type  2   force =     0.00087392   -0.00115695    0.00000000
     atom   18 type  2   force =    -0.00380716    0.00070812    0.00000000
     atom   19 type  1   force =     0.02456950    0.01578076    0.00000000
     atom   20 type  1   force =    -0.01416057   -0.03927849    0.00000000
     atom   21 type  2   force =    -0.00075785    0.00058257    0.00000000
     atom   22 type  2   force =    -0.00127852    0.00027231    0.00000000
     atom   23 type  1   force =     0.03549348   -0.00987635    0.00000000
     atom   24 type  1   force =    -0.02418754    0.04205746    0.00000000
     atom   25 type  1   force =    -0.01136709    0.00098409   -0.00397476
     atom   26 type  1   force =    -0.00290325   -0.00247864   -0.24558155
     atom   27 type  1   force =    -0.00634868    0.02732910    0.05668807
     atom   28 type  1   force =     0.02794019   -0.00212036   -0.05361166
     atom   29 type  2   force =    -0.04983237    0.00125475    0.00568292
     atom   30 type  2   force =     0.05113984    0.00138568    0.00970991
     atom   31 type  1   force =    -0.01235497   -0.00266795    0.07988345
     atom   32 type  1   force =    -0.09842742    0.03292348    0.00749812
     atom   33 type  2   force =     0.01421129   -0.00038168   -0.02721914
     atom   34 type  2   force =    -0.01189880   -0.00015164    0.06369910
     atom   35 type  1   force =    -0.01175597   -0.01311663    0.08005571
     atom   36 type  1   force =    -0.09858113   -0.05365555    0.01336974
     atom   37 type  1   force =     0.00907242    0.02141855   -1.08477648
     atom   38 type  1   force =    -0.01240613    0.91541394    0.67655075
     atom   39 type  1   force =     1.74631928    0.02966627   -0.44179546
     atom   40 type  1   force =     0.04777481   -0.01545219   -1.25063921
     atom   41 type  3   force =    -0.09596433   -0.00198337    0.03947360
     atom   42 type  3   force =    -0.09596433   -0.00198337   -0.03947360
     atom   43 type  3   force =     0.00069184   -0.04857159    0.10503614
     atom   44 type  3   force =     0.00069184   -0.04857159   -0.10503614
     The ionic contribution  to forces
     atom    1 type  1   force =    -3.42827832   -0.04410219  -95.23296400
     atom    2 type  1   force =    -0.05471396    0.10030014  -99.67443366
     atom    3 type  1   force =    -0.15721000   -0.06293921  -93.63217226
     atom    4 type  1   force =     0.17054937   -1.52351025  -89.94492317
     atom    5 type  2   force =     3.26665828    0.06668769 -169.53041676
     atom    6 type  2   force =    -3.15240449    0.03580182 -170.99635900
     atom    7 type  1   force =     0.84896571   -0.70626880  -61.27513217
     atom    8 type  1   force =    -0.18339829   -1.16439640  -63.21094617
     atom    9 type  2   force =    -0.96056213   -0.08910857 -165.80560348
     atom   10 type  2   force =     0.69938878    0.03898956 -171.17416036
     atom   11 type  1   force =     0.85190074    0.77293608  -61.10662131
     atom   12 type  1   force =    -0.18373102    1.26651184  -62.92944292
     atom   13 type  1   force =    -0.03146734   -0.03565829  -36.53070106
     atom   14 type  1   force =    -0.15106765    0.02291311  -38.10289864
     atom   15 type  1   force =    -0.13207418   -0.01460758  -24.79766490
     atom   16 type  1   force =     0.19220874   -0.03550477  -27.41214544
     atom   17 type  2   force =     0.31354226   -0.04692680   -0.00044999
     atom   18 type  2   force =    -0.29350049    0.02919764   -0.00044931
     atom   19 type  1   force =    -0.13916384    1.03940870   -0.00007825
     atom   20 type  1   force =     0.04876482    0.57014580   -0.00007566
     atom   21 type  2   force =     0.77075652    0.03053675   -0.00026459
     atom   22 type  2   force =    -1.09277732    0.00002135   -0.00025249
     atom   23 type  1   force =    -0.24514057   -1.08448289   -0.00007822
     atom   24 type  1   force =     0.16400939   -0.57566958   -0.00007563
     atom   25 type  1   force =    -0.13207380   -0.01460705   24.79745515
     atom   26 type  1   force =     0.19221811   -0.03550424   27.41201269
     atom   27 type  1   force =    -0.03146428   -0.03565993   36.53102284
     atom   28 type  1   force =    -0.15106905    0.02291270   38.10320506
     atom   29 type  2   force =     3.26660028    0.06667967  169.53066750
     atom   30 type  2   force =    -3.15234834    0.03579350  170.99660476
     atom   31 type  1   force =     0.84896341   -0.70630080   61.27519136
     atom   32 type  1   force =    -0.18339495   -1.16442380   63.21100862
     atom   33 type  2   force =    -0.96057508   -0.08910694  165.80572329
     atom   34 type  2   force =     0.69939433    0.03899505  171.17430966
     atom   35 type  1   force =     0.85189997    0.77297006   61.10668151
     atom   36 type  1   force =    -0.18372915    1.26654125   62.92950669
     atom   37 type  1   force =    -0.15720878   -0.06293691   93.63230970
     atom   38 type  1   force =     0.17055269   -1.52369823   89.94475007
     atom   39 type  1   force =    -3.42835477   -0.04410406   95.23307106
     atom   40 type  1   force =    -0.05471016    0.10030032   99.67449959
     atom   41 type  3   force =     2.62788614    0.07187870  -16.25134565
     atom   42 type  3   force =     2.62796294    0.07188016   16.25135339
     atom   43 type  3   force =     0.01409918    1.31896132  -17.93001704
     atom   44 type  3   force =     0.01409627    1.31915409   17.93029918
     The local contribution  to forces
     atom    1 type  1   force =     1.61739669    0.02745999   94.74411264
     atom    2 type  1   force =     0.06514978   -0.03290400   98.39213230
     atom    3 type  1   force =     0.13350629    0.02987869   92.50125272
     atom    4 type  1   force =    -0.14434168    0.54853125   90.74114306
     atom    5 type  2   force =    -3.27476003   -0.09197447  169.57576846
     atom    6 type  2   force =     3.16014120   -0.06320423  171.01959549
     atom    7 type  1   force =    -0.84874412    0.74087159   61.36850429
     atom    8 type  1   force =     0.29665997    1.16002195   63.21180645
     atom    9 type  2   force =     0.91442248    0.10160120  165.73010694
     atom   10 type  2   force =    -0.65665562   -0.00720828  171.23376212
     atom   11 type  1   force =    -0.84734538   -0.78377513   61.18641010
     atom   12 type  1   force =     0.29170201   -1.23191193   62.92117669
     atom   13 type  1   force =     0.03481470    0.00691371   36.58545549
     atom   14 type  1   force =     0.12642421   -0.02375776   38.05544889
     atom   15 type  1   force =     0.14038509    0.01450348   24.78957595
     atom   16 type  1   force =    -0.18569645    0.03949482   27.17343916
     atom   17 type  2   force =    -0.30573721    0.04527816   -0.00579703
     atom   18 type  2   force =     0.28909302   -0.03139205   -0.00583261
     atom   19 type  1   force =     0.10976921   -1.06796201   -0.00242309
     atom   20 type  1   force =    -0.03086443   -0.56645939   -0.00244400
     atom   21 type  2   force =    -0.77970540   -0.02828079   -0.00597342
     atom   22 type  2   force =     1.10545787    0.00196998   -0.00601871
     atom   23 type  1   force =     0.20431962    1.10587223   -0.00242161
     atom   24 type  1   force =    -0.13548178    0.56852235   -0.00244291
     atom   25 type  1   force =     0.14038862    0.01450503  -24.79133258
     atom   26 type  1   force =    -0.18568136    0.03949659  -27.17517958
     atom   27 type  1   force =     0.03481602    0.00691257  -36.58719147
     atom   28 type  1   force =     0.12643123   -0.02375640  -38.05720129
     atom   29 type  2   force =    -3.27476590   -0.09197204 -169.58183214
     atom   30 type  2   force =     3.16015065   -0.06320044 -171.02564310
     atom   31 type  1   force =    -0.84872500    0.74088423  -61.37092820
     atom   32 type  1   force =     0.29663789    1.16003178  -63.21424644
     atom   33 type  2   force =     0.91443067    0.10160152 -165.73592507
     atom   34 type  2   force =    -0.65669799   -0.00721034 -171.23944885
     atom   35 type  1   force =    -0.84732674   -0.78378694  -61.18883413
     atom   36 type  1   force =     0.29168047   -1.23192135  -62.92361629
     atom   37 type  1   force =     0.13350401    0.02986923  -92.50514473
     atom   38 type  1   force =    -0.14434361    0.54861069  -90.74483076
     atom   39 type  1   force =     1.61743082    0.02746095  -94.74565932
     atom   40 type  1   force =     0.06509059   -0.03290603  -98.39352558
     atom   41 type  3   force =    -2.55501265   -0.06696045   16.22340867
     atom   42 type  3   force =    -2.55501265   -0.06696045  -16.22340867
     atom   43 type  3   force =    -0.01168923   -1.28064014   17.86470630
     atom   44 type  3   force =    -0.01168923   -1.28064014  -17.86470630
     The core correction contribution to forces
     atom    1 type  1   force =    -0.01762570   -0.00029342   -0.00450721
     atom    2 type  1   force =    -0.00022778    0.00015643   -0.01033598
     atom    3 type  1   force =    -0.00011676   -0.00023973   -0.01067308
     atom    4 type  1   force =     0.00012511   -0.00919972    0.00597824
     atom    5 type  2   force =     0.00000000    0.00000000    0.00000000
     atom    6 type  2   force =     0.00000000    0.00000000    0.00000000
     atom    7 type  1   force =    -0.00011086   -0.00058562    0.00078531
     atom    8 type  1   force =     0.00121104   -0.00066418    0.00006108
     atom    9 type  2   force =     0.00000000    0.00000000    0.00000000
     atom   10 type  2   force =     0.00000000    0.00000000    0.00000000
     atom   11 type  1   force =    -0.00011735    0.00074285    0.00076726
     atom   12 type  1   force =     0.00120989    0.00086574    0.00010448
     atom   13 type  1   force =     0.00005878   -0.00034420    0.00060753
     atom   14 type  1   force =    -0.00025847    0.00003076   -0.00044641
     atom   15 type  1   force =     0.00019361   -0.00001060   -0.00036448
     atom   16 type  1   force =    -0.00000630    0.00004096   -0.00338597
     atom   17 type  2   force =     0.00000000    0.00000000    0.00000000
     atom   18 type  2   force =     0.00000000    0.00000000    0.00000000
     atom   19 type  1   force =    -0.00017949    0.00009118   -0.00000194
     atom   20 type  1   force =     0.00007984    0.00109336   -0.00000206
     atom   21 type  2   force =     0.00000000    0.00000000    0.00000000
     atom   22 type  2   force =     0.00000000    0.00000000    0.00000000
     atom   23 type  1   force =    -0.00028079   -0.00014257   -0.00000193
     atom   24 type  1   force =     0.00016323   -0.00112503   -0.00000205
     atom   25 type  1   force =     0.00019355   -0.00001059    0.00036234
     atom   26 type  1   force =    -0.00000621    0.00004096    0.00338391
     atom   27 type  1   force =     0.00005877   -0.00034424   -0.00060981
     atom   28 type  1   force =    -0.00025847    0.00003077    0.00044423
     atom   29 type  2   force =     0.00000000    0.00000000    0.00000000
     atom   30 type  2   force =     0.00000000    0.00000000    0.00000000
     atom   31 type  1   force =    -0.00011088   -0.00058566   -0.00078700
     atom   32 type  1   force =     0.00121104   -0.00066413   -0.00006281
     atom   33 type  2   force =     0.00000000    0.00000000    0.00000000
     atom   34 type  2   force =     0.00000000    0.00000000    0.00000000
     atom   35 type  1   force =    -0.00011737    0.00074293   -0.00076895
     atom   36 type  1   force =     0.00120989    0.00086571   -0.00010619
     atom   37 type  1   force =    -0.00011671   -0.00023989    0.01066880
     atom   38 type  1   force =     0.00012509   -0.00920105   -0.00598340
     atom   39 type  1   force =    -0.01762649   -0.00029344    0.00450488
     atom   40 type  1   force =    -0.00022811    0.00015639    0.01033422
     atom   41 type  3   force =     0.00000000    0.00000000    0.00000000
     atom   42 type  3   force =     0.00000000    0.00000000    0.00000000
     atom   43 type  3   force =     0.00000000    0.00000000    0.00000000
     atom   44 type  3   force =     0.00000000    0.00000000    0.00000000
     The Hubbard contrib.    to forces
     atom    1 type  1   force =     0.00000000    0.00000000    0.00000000
     atom    2 type  1   force =     0.00000000    0.00000000    0.00000000
     atom    3 type  1   force =     0.00000000    0.00000000    0.00000000
     atom    4 type  1   force =     0.00000000    0.00000000    0.00000000
     atom    5 type  2   force =     0.00000000    0.00000000    0.00000000
     atom    6 type  2   force =     0.00000000    0.00000000    0.00000000
     atom    7 type  1   force =     0.00000000    0.00000000    0.00000000
     atom    8 type  1   force =     0.00000000    0.00000000    0.00000000
     atom    9 type  2   force =     0.00000000    0.00000000    0.00000000
     atom   10 type  2   force =     0.00000000    0.00000000    0.00000000
     atom   11 type  1   force =     0.00000000    0.00000000    0.00000000
     atom   12 type  1   force =     0.00000000    0.00000000    0.00000000
     atom   13 type  1   force =     0.00000000    0.00000000    0.00000000
     atom   14 type  1   force =     0.00000000    0.00000000    0.00000000
     atom   15 type  1   force =     0.00000000    0.00000000    0.00000000
     atom   16 type  1   force =     0.00000000    0.00000000    0.00000000
     atom   17 type  2   force =     0.00000000    0.00000000    0.00000000
     atom   18 type  2   force =     0.00000000    0.00000000    0.00000000
     atom   19 type  1   force =     0.00000000    0.00000000    0.00000000
     atom   20 type  1   force =     0.00000000    0.00000000    0.00000000
     atom   21 type  2   force =     0.00000000    0.00000000    0.00000000
     atom   22 type  2   force =     0.00000000    0.00000000    0.00000000
     atom   23 type  1   force =     0.00000000    0.00000000    0.00000000
     atom   24 type  1   force =     0.00000000    0.00000000    0.00000000
     atom   25 type  1   force =     0.00000000    0.00000000    0.00000000
     atom   26 type  1   force =     0.00000000    0.00000000    0.00000000
     atom   27 type  1   force =     0.00000000    0.00000000    0.00000000
     atom   28 type  1   force =     0.00000000    0.00000000    0.00000000
     atom   29 type  2   force =     0.00000000    0.00000000    0.00000000
     atom   30 type  2   force =     0.00000000    0.00000000    0.00000000
     atom   31 type  1   force =     0.00000000    0.00000000    0.00000000
     atom   32 type  1   force =     0.00000000    0.00000000    0.00000000
     atom   33 type  2   force =     0.00000000    0.00000000    0.00000000
     atom   34 type  2   force =     0.00000000    0.00000000    0.00000000
     atom   35 type  1   force =     0.00000000    0.00000000    0.00000000
     atom   36 type  1   force =     0.00000000    0.00000000    0.00000000
     atom   37 type  1   force =     0.00000000    0.00000000    0.00000000
     atom   38 type  1   force =     0.00000000    0.00000000    0.00000000
     atom   39 type  1   force =     0.00000000    0.00000000    0.00000000
     atom   40 type  1   force =     0.00000000    0.00000000    0.00000000
     atom   41 type  3   force =     0.00000000    0.00000000    0.00000000
     atom   42 type  3   force =     0.00000000    0.00000000    0.00000000
     atom   43 type  3   force =     0.00000000    0.00000000    0.00000000
     atom   44 type  3   force =     0.00000000    0.00000000    0.00000000
     The SCF correction term to forces
     atom    1 type  1   force =     0.00000530    0.00000165   -0.00000426
     atom    2 type  1   force =    -0.00000450    0.00000392   -0.00000199
     atom    3 type  1   force =    -0.00000809   -0.00000107   -0.00000232
     atom    4 type  1   force =     0.00000928   -0.00000516    0.00001335
     atom    5 type  2   force =    -0.00001311   -0.00000487    0.00001467
     atom    6 type  2   force =     0.00001129   -0.00000224    0.00000457
     atom    7 type  1   force =    -0.00000294    0.00000101    0.00000879
     atom    8 type  1   force =     0.00000257   -0.00000584    0.00000937
     atom    9 type  2   force =    -0.00000209    0.00000138    0.00002296
     atom   10 type  2   force =     0.00000212    0.00000428    0.00002823
     atom   11 type  1   force =    -0.00000224    0.00000027    0.00000720
     atom   12 type  1   force =     0.00000192    0.00000630    0.00000909
     atom   13 type  1   force =    -0.00000453   -0.00000042    0.00000656
     atom   14 type  1   force =     0.00000449   -0.00000049    0.00000997
     atom   15 type  1   force =    -0.00000372    0.00000014    0.00001217
     atom   16 type  1   force =     0.00000353    0.00000023    0.00001292
     atom   17 type  2   force =    -0.00000576   -0.00000039    0.00001044
     atom   18 type  2   force =     0.00000570   -0.00000055    0.00001042
     atom   19 type  1   force =     0.00000001    0.00000161    0.00000382
     atom   20 type  1   force =     0.00000008    0.00000401    0.00000383
     atom   21 type  2   force =    -0.00000164    0.00000054    0.00001021
     atom   22 type  2   force =     0.00000209    0.00000041    0.00001021
     atom   23 type  1   force =     0.00000001   -0.00000173    0.00000381
     atom   24 type  1   force =     0.00000005   -0.00000411    0.00000382
     atom   25 type  1   force =    -0.00000373    0.00000013   -0.00000580
     atom   26 type  1   force =     0.00000353    0.00000023   -0.00000690
     atom   27 type  1   force =    -0.00000457   -0.00000041   -0.00000216
     atom   28 type  1   force =     0.00000453   -0.00000049   -0.00000557
     atom   29 type  2   force =    -0.00001316   -0.00000483   -0.00001410
     atom   30 type  2   force =     0.00001133   -0.00000221   -0.00000410
     atom   31 type  1   force =    -0.00000299    0.00000088   -0.00000836
     atom   32 type  1   force =     0.00000260   -0.00000598   -0.00000908
     atom   33 type  2   force =    -0.00000215    0.00000135   -0.00002222
     atom   34 type  2   force =     0.00000222    0.00000425   -0.00002863
     atom   35 type  1   force =    -0.00000229    0.00000039   -0.00000675
     atom   36 type  1   force =     0.00000195    0.00000642   -0.00000877
     atom   37 type  1   force =    -0.00000814   -0.00000105    0.00000010
     atom   38 type  1   force =     0.00000932   -0.00000516   -0.00001573
     atom   39 type  1   force =     0.00000523    0.00000165    0.00000166
     atom   40 type  1   force =    -0.00000444    0.00000392   -0.00000059
     atom   41 type  3   force =    -0.00000033    0.00000031   -0.00000031
     atom   42 type  3   force =    -0.00000032    0.00000031   -0.00000008
     atom   43 type  3   force =     0.00000067   -0.00000006   -0.00000058
     atom   44 type  3   force =     0.00000067   -0.00000006    0.00000020

     Total force =     0.089344     Total SCF correction =     0.000083

     BFGS Geometry Optimization
     Energy error            =      0.0E+00 Ry
     Gradient error          =      3.5E-02 Ry/Bohr

     number of scf cycles    =   1
     number of bfgs steps    =   0

     energy             new  =   -3432.7951637032 Ry

     new trust radius        =       0.0351752968 bohr
     new conv_thr            =       0.0000000010 Ry


ATOMIC_POSITIONS (crystal)
O             0.0074673660        0.5031459082        0.2715004476
O             0.4780235452        0.5027694845        0.2736920435
O            -0.0008263324        0.0007875807        0.3085235114
O             0.4968047639       -0.0020197404        0.3004427158
Ru            0.2434172995        0.0026490015        0.3568774670
Ru            0.7524473864        0.0028564764        0.3561704826
O             0.2477947469        0.3086060444        0.3591433999
O             0.7517480675        0.3116699392        0.3566603391
Ru            0.0021267215        0.5024972901        0.3580893610
Ru            0.5033997976        0.5031385743        0.3514339645
O             0.2474572193        0.6963604084        0.3594026789
O             0.7520490977        0.6934262429        0.3571154097
O            -0.0035610495        0.0017078336        0.4120429829
O             0.5016629659        0.0022758424        0.4123846841
O            -0.0001813256        0.5018043235        0.4462967026
O             0.4965322026        0.5020330560        0.4410367437
Ru           -0.0038647302        0.0023710488        0.5000010000
Ru            0.5004727783        0.0016037723        0.5000010000
O             0.2500054252        0.1914686762        0.5000010000
O             0.7469041936        0.1966701319        0.5000010000
Ru            0.2547160478        0.5018259651        0.5000010000
Ru            0.7445925346        0.5018995362        0.5000010000
O             0.2500014654        0.8124389336        0.5000010000
O             0.7468198579        0.8071856433        0.5000010000
O            -0.0001813256        0.5018043235        0.5537042974
O             0.4965322026        0.5020330560        0.5589642563
O            -0.0035610495        0.0017078336        0.5879580171
O             0.5016629659        0.0022758424        0.5876163159
Ru            0.2434172995        0.0026490015        0.6431235330
Ru            0.7524473864        0.0028564764        0.6438305174
O             0.2477947469        0.3086060444        0.6408576001
O             0.7517480675        0.3116699392        0.6433406609
Ru            0.0021267215        0.5024972901        0.6419116390
Ru            0.5033997976        0.5031385743        0.6485670355
O             0.2474572193        0.6963604084        0.6405983211
O             0.7520490977        0.6934262429        0.6428855903
O            -0.0008263324        0.0007875807        0.6914784886
O             0.4968047639       -0.0020197404        0.6995592842
O             0.0074673660        0.5031459082        0.7285005524
O             0.4780235452        0.5027694845        0.7263089565
H             0.1506682468        0.5060860045        0.2559289242
H             0.1506682468        0.5060860045        0.7440710758
H             0.4957804942        0.0666908759        0.2602390508
H             0.4957804942        0.0666908759        0.7397609492



     Writing config-only to output data dir /storage/home/mgm6007/ixd4/Maria/Strain0_Files/RuO2-110-0-03/RuO2-110-0-03.save/
     NEW-OLD atomic charge density approx. for the potential

     Check: negative core charge=   -0.000001

     negative rho (up, down):  1.497E-04 0.000E+00

     add environment contribution to local potential
     Polarization accuracy = 5.0E-12, # of iterations =  46

     total cpu time spent up to now is    13923.3 secs

     per-process dynamical memory:   223.2 Mb

     Self-consistent Calculation

     iteration #  1     ecut=    50.00 Ry     beta= 0.70
     Davidson diagonalization with overlap
     ethr =  1.00E-06,  avg # of iterations =  4.0

     negative rho (up, down):  2.645E-04 0.000E+00

     add environment contribution to local potential
     Polarization accuracy = 3.9E-12, # of iterations =  46

     total cpu time spent up to now is    14160.7 secs

     total energy              =   -3432.79918201 Ry
     estimated scf accuracy    <       0.00401663 Ry
     electrostatic embedding   =      -0.05804759 Ry
     cavitation energy         =       0.02160048 Ry
     PV energy                 =      -0.08107218 Ry
     correction to one-el term =     188.56882072 Ry

     iteration #  2     ecut=    50.00 Ry     beta= 0.70
     Davidson diagonalization with overlap
     ethr =  1.10E-06,  avg # of iterations =  2.0

     negative rho (up, down):  2.606E-04 0.000E+00

     add environment contribution to local potential
     Polarization accuracy = 6.1E-12, # of iterations =  46

     total cpu time spent up to now is    14424.7 secs

     total energy              =   -3432.79938634 Ry
     estimated scf accuracy    <       0.00812003 Ry
     electrostatic embedding   =      -0.05868134 Ry
     cavitation energy         =       0.02159940 Ry
     PV energy                 =      -0.08103934 Ry
     correction to one-el term =     188.65320712 Ry

     iteration #  3     ecut=    50.00 Ry     beta= 0.70
     Davidson diagonalization with overlap
     ethr =  1.10E-06,  avg # of iterations =  1.0

     negative rho (up, down):  3.226E-04 0.000E+00

     add environment contribution to local potential
     Polarization accuracy = 3.3E-12, # of iterations =  47

     total cpu time spent up to now is    14692.3 secs

     total energy              =   -3432.79976884 Ry
     estimated scf accuracy    <       0.00051014 Ry
     electrostatic embedding   =      -0.05881221 Ry
     cavitation energy         =       0.02159257 Ry
     PV energy                 =      -0.08104706 Ry
     correction to one-el term =     188.63563302 Ry

     iteration #  4     ecut=    50.00 Ry     beta= 0.70
     Davidson diagonalization with overlap
     ethr =  1.40E-07,  avg # of iterations =  2.0

     negative rho (up, down):  3.683E-04 0.000E+00

     add environment contribution to local potential
     Polarization accuracy = 3.4E-12, # of iterations =  47

     total cpu time spent up to now is    14945.2 secs

     total energy              =   -3432.79978070 Ry
     estimated scf accuracy    <       0.00021220 Ry
     electrostatic embedding   =      -0.05920524 Ry
     cavitation energy         =       0.02158785 Ry
     PV energy                 =      -0.08104678 Ry
     correction to one-el term =     188.64873185 Ry

     iteration #  5     ecut=    50.00 Ry     beta= 0.70
     Davidson diagonalization with overlap
     ethr =  5.83E-08,  avg # of iterations =  2.0

     negative rho (up, down):  3.941E-04 0.000E+00

     add environment contribution to local potential
     Polarization accuracy = 3.8E-12, # of iterations =  46

     total cpu time spent up to now is    15279.1 secs

     total energy              =   -3432.79979485 Ry
     estimated scf accuracy    <       0.00006483 Ry
     electrostatic embedding   =      -0.05952192 Ry
     cavitation energy         =       0.02158377 Ry
     PV energy                 =      -0.08104720 Ry
     correction to one-el term =     188.65321418 Ry

     iteration #  6     ecut=    50.00 Ry     beta= 0.70
     Davidson diagonalization with overlap
     ethr =  1.78E-08,  avg # of iterations =  2.0

     negative rho (up, down):  3.841E-04 0.000E+00

     add environment contribution to local potential
     Polarization accuracy = 7.4E-12, # of iterations =  46

     total cpu time spent up to now is    15584.9 secs

     total energy              =   -3432.79980272 Ry
     estimated scf accuracy    <       0.00001539 Ry
     electrostatic embedding   =      -0.05985580 Ry
     cavitation energy         =       0.02158006 Ry
     PV energy                 =      -0.08104939 Ry
     correction to one-el term =     188.64951746 Ry

     iteration #  7     ecut=    50.00 Ry     beta= 0.70
     Davidson diagonalization with overlap
     ethr =  4.23E-09,  avg # of iterations =  2.0

     negative rho (up, down):  3.550E-04 0.000E+00

     add environment contribution to local potential
     Polarization accuracy = 3.9E-12, # of iterations =  46

     total cpu time spent up to now is    15915.9 secs

     total energy              =   -3432.79980366 Ry
     estimated scf accuracy    <       0.00000852 Ry
     electrostatic embedding   =      -0.06001473 Ry
     cavitation energy         =       0.02157892 Ry
     PV energy                 =      -0.08105106 Ry
     correction to one-el term =     188.64086746 Ry

     iteration #  8     ecut=    50.00 Ry     beta= 0.70
     Davidson diagonalization with overlap
     ethr =  2.34E-09,  avg # of iterations =  3.0

     negative rho (up, down):  3.008E-04 0.000E+00

     add environment contribution to local potential
     Polarization accuracy = 3.5E-12, # of iterations =  47

     total cpu time spent up to now is    16216.1 secs

     total energy              =   -3432.79980404 Ry
     estimated scf accuracy    <       0.00000249 Ry
     electrostatic embedding   =      -0.06025687 Ry
     cavitation energy         =       0.02157731 Ry
     PV energy                 =      -0.08105362 Ry
     correction to one-el term =     188.62335416 Ry

     iteration #  9     ecut=    50.00 Ry     beta= 0.70
     Davidson diagonalization with overlap
     ethr =  6.83E-10,  avg # of iterations =  3.0

     negative rho (up, down):  2.647E-04 0.000E+00

     add environment contribution to local potential
     Polarization accuracy = 9.1E-12, # of iterations =  46

     total cpu time spent up to now is    16525.0 secs

     total energy              =   -3432.79980313 Ry
     estimated scf accuracy    <       0.00000132 Ry
     electrostatic embedding   =      -0.06056617 Ry
     cavitation energy         =       0.02157576 Ry
     PV energy                 =      -0.08105626 Ry
     correction to one-el term =     188.59718378 Ry

     iteration # 10     ecut=    50.00 Ry     beta= 0.70
     Davidson diagonalization with overlap
     ethr =  3.64E-10,  avg # of iterations =  3.0

     negative rho (up, down):  2.206E-04 0.000E+00

[...]
     atom   13 type  1   force =    -0.00007019   -0.00026551    0.00070897
     atom   14 type  1   force =    -0.00009259    0.00003960   -0.00060383
     atom   15 type  1   force =     0.00017233   -0.00001743   -0.00028920
     atom   16 type  1   force =    -0.00002587    0.00003376   -0.00356339
     atom   17 type  2   force =     0.00000000    0.00000000    0.00000000
     atom   18 type  2   force =     0.00000000    0.00000000    0.00000000
     atom   19 type  1   force =    -0.00020837    0.00013894   -0.00000197
     atom   20 type  1   force =     0.00014113    0.00022162   -0.00000198
     atom   21 type  2   force =     0.00000000    0.00000000    0.00000000
     atom   22 type  2   force =     0.00000000    0.00000000    0.00000000
     atom   23 type  1   force =    -0.00024081   -0.00016011   -0.00000196
     atom   24 type  1   force =     0.00017101   -0.00024292   -0.00000197
     atom   25 type  1   force =     0.00017228   -0.00001743    0.00028702
     atom   26 type  1   force =    -0.00002583    0.00003376    0.00356134
     atom   27 type  1   force =    -0.00007020   -0.00026554   -0.00071130
     atom   28 type  1   force =    -0.00009259    0.00003961    0.00060163
     atom   29 type  2   force =     0.00000000    0.00000000    0.00000000
     atom   30 type  2   force =     0.00000000    0.00000000    0.00000000
     atom   31 type  1   force =    -0.00034361   -0.00045410   -0.00097514
     atom   32 type  1   force =     0.00085387   -0.00047388   -0.00026548
     atom   33 type  2   force =     0.00000000    0.00000000    0.00000000
     atom   34 type  2   force =     0.00000000    0.00000000    0.00000000
     atom   35 type  1   force =    -0.00033579    0.00056043   -0.00097537
     atom   36 type  1   force =     0.00084150    0.00060789   -0.00031303
     atom   37 type  1   force =    -0.00004749   -0.00017252    0.01093219
     atom   38 type  1   force =     0.00002387   -0.00691872   -0.00737685
     atom   39 type  1   force =    -0.01775517   -0.00032523    0.00436439
     atom   40 type  1   force =    -0.00002434    0.00010403    0.01054033
     atom   41 type  3   force =     0.00000000    0.00000000    0.00000000
     atom   42 type  3   force =     0.00000000    0.00000000    0.00000000
     atom   43 type  3   force =     0.00000000    0.00000000    0.00000000
     atom   44 type  3   force =     0.00000000    0.00000000    0.00000000
     The Hubbard contrib.    to forces
     atom    1 type  1   force =     0.00000000    0.00000000    0.00000000
     atom    2 type  1   force =     0.00000000    0.00000000    0.00000000
     atom    3 type  1   force =     0.00000000    0.00000000    0.00000000
     atom    4 type  1   force =     0.00000000    0.00000000    0.00000000
     atom    5 type  2   force =     0.00000000    0.00000000    0.00000000
     atom    6 type  2   force =     0.00000000    0.00000000    0.00000000
     atom    7 type  1   force =     0.00000000    0.00000000    0.00000000
     atom    8 type  1   force =     0.00000000    0.00000000    0.00000000
     atom    9 type  2   force =     0.00000000    0.00000000    0.00000000
     atom   10 type  2   force =     0.00000000    0.00000000    0.00000000
     atom   11 type  1   force =     0.00000000    0.00000000    0.00000000
     atom   12 type  1   force =     0.00000000    0.00000000    0.00000000
     atom   13 type  1   force =     0.00000000    0.00000000    0.00000000
     atom   14 type  1   force =     0.00000000    0.00000000    0.00000000
     atom   15 type  1   force =     0.00000000    0.00000000    0.00000000
     atom   16 type  1   force =     0.00000000    0.00000000    0.00000000
     atom   17 type  2   force =     0.00000000    0.00000000    0.00000000
     atom   18 type  2   force =     0.00000000    0.00000000    0.00000000
     atom   19 type  1   force =     0.00000000    0.00000000    0.00000000
     atom   20 type  1   force =     0.00000000    0.00000000    0.00000000
     atom   21 type  2   force =     0.00000000    0.00000000    0.00000000
     atom   22 type  2   force =     0.00000000    0.00000000    0.00000000
     atom   23 type  1   force =     0.00000000    0.00000000    0.00000000
     atom   24 type  1   force =     0.00000000    0.00000000    0.00000000
     atom   25 type  1   force =     0.00000000    0.00000000    0.00000000
     atom   26 type  1   force =     0.00000000    0.00000000    0.00000000
     atom   27 type  1   force =     0.00000000    0.00000000    0.00000000
     atom   28 type  1   force =     0.00000000    0.00000000    0.00000000
     atom   29 type  2   force =     0.00000000    0.00000000    0.00000000
     atom   30 type  2   force =     0.00000000    0.00000000    0.00000000
     atom   31 type  1   force =     0.00000000    0.00000000    0.00000000
     atom   32 type  1   force =     0.00000000    0.00000000    0.00000000
     atom   33 type  2   force =     0.00000000    0.00000000    0.00000000
     atom   34 type  2   force =     0.00000000    0.00000000    0.00000000
     atom   35 type  1   force =     0.00000000    0.00000000    0.00000000
     atom   36 type  1   force =     0.00000000    0.00000000    0.00000000
     atom   37 type  1   force =     0.00000000    0.00000000    0.00000000
     atom   38 type  1   force =     0.00000000    0.00000000    0.00000000
     atom   39 type  1   force =     0.00000000    0.00000000    0.00000000
     atom   40 type  1   force =     0.00000000    0.00000000    0.00000000
     atom   41 type  3   force =     0.00000000    0.00000000    0.00000000
     atom   42 type  3   force =     0.00000000    0.00000000    0.00000000
     atom   43 type  3   force =     0.00000000    0.00000000    0.00000000
     atom   44 type  3   force =     0.00000000    0.00000000    0.00000000
     The SCF correction term to forces
     atom    1 type  1   force =    -0.00000041   -0.00000037   -0.00000069
     atom    2 type  1   force =     0.00000010   -0.00000032   -0.00000066
     atom    3 type  1   force =    -0.00000025    0.00000043   -0.00000052
     atom    4 type  1   force =     0.00000027    0.00000001   -0.00000107
     atom    5 type  2   force =     0.00000090    0.00000090   -0.00000043
     atom    6 type  2   force =    -0.00000121    0.00000086   -0.00000014
     atom    7 type  1   force =     0.00000036    0.00000031   -0.00000044
     atom    8 type  1   force =    -0.00000051    0.00000014   -0.00000019
     atom    9 type  2   force =    -0.00000015   -0.00000080   -0.00000093
     atom   10 type  2   force =     0.00000035   -0.00000074   -0.00000088
     atom   11 type  1   force =     0.00000037   -0.00000065    0.00000001
     atom   12 type  1   force =    -0.00000054   -0.00000052    0.00000010
     atom   13 type  1   force =    -0.00000028    0.00000004   -0.00000082
     atom   14 type  1   force =     0.00000047    0.00000017    0.00000132
     atom   15 type  1   force =     0.00000049   -0.00000009    0.00000001
     atom   16 type  1   force =    -0.00000021   -0.00000019    0.00000004
     atom   17 type  2   force =    -0.00000073    0.00000005   -0.00000002
     atom   18 type  2   force =     0.00000039    0.00000017   -0.00000002
     atom   19 type  1   force =     0.00000218    0.00000077   -0.00000001
     atom   20 type  1   force =    -0.00000191   -0.00000019   -0.00000001
     atom   21 type  2   force =     0.00000133   -0.00000019   -0.00000002
     atom   22 type  2   force =    -0.00000160   -0.00000024   -0.00000002
     atom   23 type  1   force =     0.00000214   -0.00000070   -0.00000001
     atom   24 type  1   force =    -0.00000186    0.00000028   -0.00000001
     atom   25 type  1   force =     0.00000049   -0.00000009   -0.00000003
     atom   26 type  1   force =    -0.00000021   -0.00000019   -0.00000005
     atom   27 type  1   force =    -0.00000027    0.00000004    0.00000081
     atom   28 type  1   force =     0.00000047    0.00000017   -0.00000133
     atom   29 type  2   force =     0.00000091    0.00000090    0.00000042
     atom   30 type  2   force =    -0.00000121    0.00000086    0.00000014
     atom   31 type  1   force =     0.00000036    0.00000031    0.00000044
     atom   32 type  1   force =    -0.00000051    0.00000014    0.00000019
     atom   33 type  2   force =    -0.00000014   -0.00000080    0.00000093
     atom   34 type  2   force =     0.00000035   -0.00000074    0.00000087
     atom   35 type  1   force =     0.00000038   -0.00000065   -0.00000001
     atom   36 type  1   force =    -0.00000054   -0.00000052   -0.00000010
     atom   37 type  1   force =    -0.00000025    0.00000043    0.00000052
     atom   38 type  1   force =     0.00000027    0.00000001    0.00000107
     atom   39 type  1   force =    -0.00000040   -0.00000037    0.00000069
     atom   40 type  1   force =     0.00000010   -0.00000032    0.00000066
     atom   41 type  3   force =     0.00000004   -0.00000004   -0.00000011
     atom   42 type  3   force =     0.00000004   -0.00000004    0.00000011
     atom   43 type  3   force =     0.00000002    0.00000004   -0.00000008
     atom   44 type  3   force =     0.00000002    0.00000004    0.00000008

     Total force =     0.000434     Total SCF correction =     0.000007
     Energy error            =      4.6E-07 Ry
     Gradient error          =      1.1E-04 Ry/Bohr

     number of scf cycles    =  43
     number of bfgs steps    =  42

     energy             old  =   -3432.8029077856 Ry
     energy             new  =   -3432.8029082438 Ry

     CASE: energy            _new < energy            _old

     new trust radius        =       0.0006411601 bohr
     new conv_thr            =            1.0E-11 Ry


ATOMIC_POSITIONS (crystal)
O             0.0032829616        0.5035301800        0.2710261350
O             0.4834861022        0.5034342359        0.2727003450
O            -0.0005538306        0.0018103056        0.3075027821
O             0.4978438798       -0.0002286860        0.3005430481
Ru            0.2436255975        0.0032875312        0.3564254914
Ru            0.7534156280        0.0033640335        0.3559667919
O             0.2475226720        0.3109323345        0.3588502771
O             0.7507612377        0.3125438836        0.3568473337
Ru           -0.0000112614        0.5030849592        0.3578705057
Ru            0.5005462185        0.5036402937        0.3505374881
O             0.2470441667        0.6953489111        0.3590661035
O             0.7511898479        0.6937434881        0.3572611600
O            -0.0019786219        0.0026796946        0.4114607728
O             0.5002378311        0.0030521134        0.4121715028
O             0.0003235729        0.5026152468        0.4464108521
O             0.4995496346        0.5030266900        0.4412063061
Ru           -0.0010165419        0.0032265917        0.5000010000
Ru            0.4995462248        0.0026153043        0.5000010000
O             0.2502055669        0.1927702527        0.5000010000
O             0.7482484751        0.1932578830        0.5000010000
Ru            0.2555211191        0.5028348771        0.5000010000
Ru            0.7445428987        0.5028410599        0.5000010000
O             0.2499112548        0.8130201015        0.5000010000
O             0.7485341828        0.8125009835        0.5000010000
O             0.0003235729        0.5026152468        0.5535901479
O             0.4995496346        0.5030266900        0.5587946939
O            -0.0019786219        0.0026796946        0.5885402272
O             0.5002378311        0.0030521134        0.5878294972
Ru            0.2436255975        0.0032875312        0.6435755086
Ru            0.7534156280        0.0033640335        0.6440342081
O             0.2475226720        0.3109323345        0.6411507229
O             0.7507612377        0.3125438836        0.6431536663
Ru           -0.0000112614        0.5030849592        0.6421304943
Ru            0.5005462185        0.5036402937        0.6494635119
O             0.2470441667        0.6953489111        0.6409348965
O             0.7511898479        0.6937434881        0.6427398400
O            -0.0005538306        0.0018103056        0.6924992179
O             0.4978438798       -0.0002286860        0.6994589519
O             0.0032829616        0.5035301800        0.7289748650
O             0.4834861022        0.5034342359        0.7273006550
H             0.1460009909        0.5066201558        0.2548035251
H             0.1460009909        0.5066201558        0.7451964749
H             0.4976017825        0.0501981020        0.2587076350
H             0.4976017825        0.0501981020        0.7412923650



     Writing config-only to output data dir /storage/home/mgm6007/ixd4/Maria/Strain0_Files/RuO2-110-0-03/RuO2-110-0-03.save/
     NEW-OLD atomic charge density approx. for the potential

     Check: negative core charge=   -0.000001

     negative rho (up, down):  1.508E-04 0.000E+00

     add environment contribution to local potential
     Polarization accuracy = 4.8E-12, # of iterations =  46

     total cpu time spent up to now is   246489.4 secs

     per-process dynamical memory:   223.2 Mb

     Self-consistent Calculation

     iteration #  1     ecut=    50.00 Ry     beta= 0.70
     Davidson diagonalization with overlap
     ethr =  1.00E-06,  avg # of iterations =  2.0

     Threshold (ethr) on eigenvalues was too large:
     Diagonalizing with lowered threshold

     Davidson diagonalization with overlap
     ethr =  1.20E-10,  avg # of iterations =  4.0

     negative rho (up, down):  1.506E-04 0.000E+00

     add environment contribution to local potential
     Polarization accuracy = 3.6E-12, # of iterations =  47

     total cpu time spent up to now is   246814.9 secs

     total energy              =   -3432.80290828 Ry
     estimated scf accuracy    <       0.00000035 Ry
     electrostatic embedding   =      -0.06345943 Ry
     cavitation energy         =       0.02159812 Ry
     PV energy                 =      -0.08127774 Ry
     correction to one-el term =     188.16213431 Ry

     iteration #  2     ecut=    50.00 Ry     beta= 0.70
     Davidson diagonalization with overlap
     ethr =  9.67E-11,  avg # of iterations =  2.0

     negative rho (up, down):  1.504E-04 0.000E+00

     add environment contribution to local potential
     Polarization accuracy = 3.6E-12, # of iterations =  47

     total cpu time spent up to now is   247080.1 secs

     total energy              =   -3432.80290835 Ry
     estimated scf accuracy    <       0.00000056 Ry
     electrostatic embedding   =      -0.06346464 Ry
     cavitation energy         =       0.02159797 Ry
     PV energy                 =      -0.08127736 Ry
     correction to one-el term =     188.16218851 Ry

     iteration #  3     ecut=    50.00 Ry     beta= 0.70
     Davidson diagonalization with overlap
     ethr =  9.67E-11,  avg # of iterations =  1.0

     negative rho (up, down):  1.505E-04 0.000E+00

     add environment contribution to local potential
     Polarization accuracy = 3.8E-12, # of iterations =  46

     total cpu time spent up to now is   247437.2 secs

     total energy              =   -3432.80290839 Ry
     estimated scf accuracy    <       0.00000008 Ry
     electrostatic embedding   =      -0.06346541 Ry
     cavitation energy         =       0.02159791 Ry
     PV energy                 =      -0.08127735 Ry
     correction to one-el term =     188.16202495 Ry

     iteration #  4     ecut=    50.00 Ry     beta= 0.70
     Davidson diagonalization with overlap
     ethr =  2.25E-11,  avg # of iterations =  2.0

     negative rho (up, down):  1.506E-04 0.000E+00

     add environment contribution to local potential
     Polarization accuracy = 5.7E-12, # of iterations =  46

     total cpu time spent up to now is   247667.3 secs

     total energy              =   -3432.80290845 Ry
     estimated scf accuracy    <       0.00000003 Ry
     electrostatic embedding   =      -0.06346867 Ry
     cavitation energy         =       0.02159781 Ry
     PV energy                 =      -0.08127717 Ry
     correction to one-el term =     188.16212868 Ry

     iteration #  5     ecut=    50.00 Ry     beta= 0.70
     Davidson diagonalization with overlap
     ethr =  7.56E-12,  avg # of iterations =  2.0

     negative rho (up, down):  1.506E-04 0.000E+00

     add environment contribution to local potential
     Polarization accuracy = 4.1E-12, # of iterations =  48

     total cpu time spent up to now is   247877.3 secs

     total energy              =   -3432.80290846 Ry
     estimated scf accuracy    <          4.6E-09 Ry
     electrostatic embedding   =      -0.06346968 Ry
     cavitation energy         =       0.02159778 Ry
     PV energy                 =      -0.08127714 Ry
     correction to one-el term =     188.16220735 Ry

     iteration #  6     ecut=    50.00 Ry     beta= 0.70
     Davidson diagonalization with overlap
     ethr =  1.27E-12,  avg # of iterations =  2.0

     negative rho (up, down):  1.508E-04 0.000E+00

     add environment contribution to local potential
     Polarization accuracy = 3.6E-12, # of iterations =  47

     total cpu time spent up to now is   248029.1 secs

     total energy              =   -3432.80290847 Ry
     estimated scf accuracy    <          1.8E-09 Ry
     electrostatic embedding   =      -0.06347032 Ry
     cavitation energy         =       0.02159776 Ry
     PV energy                 =      -0.08127714 Ry
     correction to one-el term =     188.16225311 Ry

     iteration #  7     ecut=    50.00 Ry     beta= 0.70
     Davidson diagonalization with overlap
     ethr =  4.86E-13,  avg # of iterations =  2.0

     negative rho (up, down):  1.508E-04 0.000E+00

     add environment contribution to local potential
     Polarization accuracy = 3.6E-12, # of iterations =  47

     total cpu time spent up to now is   248189.7 secs

     total energy              =   -3432.80290849 Ry
     estimated scf accuracy    <          8.1E-10 Ry
     electrostatic embedding   =      -0.06347123 Ry
     cavitation energy         =       0.02159773 Ry
     PV energy                 =      -0.08127714 Ry
     correction to one-el term =     188.16232236 Ry

     iteration #  8     ecut=    50.00 Ry     beta= 0.70
     Davidson diagonalization with overlap
     ethr =  2.23E-13,  avg # of iterations =  2.0

     negative rho (up, down):  1.509E-04 0.000E+00

     add environment contribution to local potential
     Polarization accuracy = 3.5E-12, # of iterations =  47

     total cpu time spent up to now is   248481.5 secs

     total energy              =   -3432.80290849 Ry
     estimated scf accuracy    <          1.8E-10 Ry
     electrostatic embedding   =      -0.06347191 Ry
     cavitation energy         =       0.02159771 Ry
     PV energy                 =      -0.08127715 Ry
     correction to one-el term =     188.16234731 Ry

     iteration #  9     ecut=    50.00 Ry     beta= 0.70
     Davidson diagonalization with overlap
     ethr =  1.00E-13,  avg # of iterations =  2.0

     negative rho (up, down):  1.509E-04 0.000E+00

     add environment contribution to local potential
     Polarization accuracy = 3.6E-12, # of iterations =  47

     total cpu time spent up to now is   248646.7 secs

     total energy              =   -3432.80290850 Ry
     estimated scf accuracy    <          9.5E-11 Ry
     electrostatic embedding   =      -0.06347259 Ry
     cavitation energy         =       0.02159769 Ry
     PV energy                 =      -0.08127715 Ry
     correction to one-el term =     188.16235720 Ry

     iteration # 10     ecut=    50.00 Ry     beta= 0.70
     Davidson diagonalization with overlap
     ethr =  1.00E-13,  avg # of iterations =  2.0

     negative rho (up, down):  1.508E-04 0.000E+00

     add environment contribution to local potential
     Polarization accuracy = 8.3E-12, # of iterations =  46
