
     Program PWSCF v.7.2 starts on 13Jul2023 at 16:14:12 
        Git branch: heads/qe-7.2
        Last git commit: b4c5e8deeb7d1863e7553a87b45f8d22c21926a5
        Last git commit date: Mon Mar 27 16:12:09 2023 +0000
        Last git commit subject: Merge branch 'merge_fix_hubbard' into 'develop'

     This program is part of the open-source Quantum ESPRESSO suite
     for quantum simulation of materials; please cite
         "P. Giannozzi et al., J. Phys.:Condens. Matter 21 395502 (2009);
         "P. Giannozzi et al., J. Phys.:Condens. Matter 29 465901 (2017);
         "P. Giannozzi et al., J. Chem. Phys. 152 154105 (2020);
          URL http://www.quantum-espresso.org", 
     in publications or presentations arising from this work. More details at
     http://www.quantum-espresso.org/quote

     Parallel version (MPI), running on    20 processors

     MPI processes distributed on     1 nodes
     98949 MiB available memory on the printing compute node when the environment starts
 
     Reading input from RuO2-110-0-.in
Warning: card  H 1.007940 H.PBE-RRKJUS_PSL.1.0.0.UPF ignored

     Current dimensions of program PWSCF are:
     Max number of different atomic species (ntypx) = 10
     Max number of k-points (npk) =  40000
     Max angular momentum in pseudopotentials (lmaxx) =  4
 
     Reading input from environ.in:
     * Environ restarting
     * setting up water environment
     * using electronic solvent mode
     * setting boundary derivatives method to SCCS default
     
     file O.pbe-n-kjpaw_psl.0.1.UPF: wavefunction(s)  2P renormalized
     Message from routine setup:
     using ibrav=0 with symmetry is DISCOURAGED, use correct ibrav instead
 
     R & G space division:  proc/nbgrp/npool/nimage =      20
     Subspace diagonalization in iterative solution of the eigenvalue problem:
     one sub-group per band group will be used
     scalapack distributed-memory algorithm (size of sub-group:  2*  2 procs)

 
     Parallelization info
     --------------------
     sticks:   dense  smooth     PW     G-vecs:    dense   smooth      PW
     Min         276     110     29                56068    14184    1917
     Max         277     111     30                56077    14195    1924
     Sum        5527    2209    585              1121423   283773   38387
 
     Using Slab Decomposition
 


     bravais-lattice index     =            0
     lattice parameter (alat)  =      12.3893  a.u.
     unit-cell volume          =    5939.8030 (a.u.)^3
     number of atoms/cell      =           40
     number of atomic types    =            2
     number of electrons       =       360.00
     number of Kohn-Sham states=          216
     kinetic-energy cutoff     =      50.0000  Ry
     charge density cutoff     =     500.0000  Ry
     scf convergence threshold =      1.0E-09
     mixing beta               =       0.7000
     number of iterations used =            8  local-TF  mixing
     energy convergence thresh.=      1.0E-04
     force convergence thresh. =      1.0E-04
     Exchange-correlation= PBE
                           (   1   4   3   4   0   0   0)
     nstep                     =          200


     ================================================================================
 
                                  Environ Setup Summary

     ================================================================================
 
     Please cite

          O. Andreussi, I. Dabo and N. Marzari, J. Chem. Phys. 136, 064102 (2012)

     in publications or presentations arising from this work.

     ================================================================================
 
     Parameters
     ==========

     compensation onset threshold      =               0.1000E+00
     static permittivity               =                    78.30
     surface tension in input (dyn/cm) =                    47.90
     surface tension in internal units =               0.6153E-04
     external pressure in input (GPa)  =                    -0.36
     external pressure in inter. units =              -0.2447E-04

     Solvent Boundary
     ================

     solvent mode                      =               electronic
     derivatives method                =                    chain
     numerical core for derivatives    =                      fft
     switching function adopted        =                     SCCS
     density limit for vacuum region   =               0.5000E-02
     density limit for bulk solvent    =               0.1000E-03

     Electrostatic Setup
     ===================

     electrostatic problem to solve    =              generalized
     numerical solver adopted          =                       cg
     type of auxiliary density adopted =                     none
     numerical core for poisson        =                      fft
     type of pbc corrections           =                parabolic
     numerical core for corrections    =                      1da

     ================================================================================
 

     celldm(1)=  12.389316  celldm(2)=   0.000000  celldm(3)=   0.000000
     celldm(4)=   0.000000  celldm(5)=   0.000000  celldm(6)=   0.000000

     crystal axes: (cart. coord. in units of alat)
               a(1) = (   1.000000   0.000000   0.000000 )  
               a(2) = (   0.000000   0.904766   0.000000 )  
               a(3) = (   0.000000   0.000000   3.452182 )  

     reciprocal axes: (cart. coord. in units 2 pi/alat)
               b(1) = (  1.000000  0.000000  0.000000 )  
               b(2) = (  0.000000  1.105258  0.000000 )  
               b(3) = (  0.000000  0.000000  0.289672 )  


     PseudoPot. # 1 for O  read from file:
     /gpfs/group/ixd4/default/Simon/pseudopotentials/materialscloud/SSSP_1.3.0_PBE_efficiency/O.pbe-n-kjpaw_psl.0.1.UPF
     MD5 check sum: 0234752ac141de4415c5fc33072bef88
     Pseudo is Projector augmented-wave + core cor, Zval =  6.0
     Generated using "atomic" code by A. Dal Corso  v.5.0.99 svn rev. 10869
     Shape of augmentation charge: BESSEL
     Using radial grid of 1095 points,  4 beta functions with: 
                l(1) =   0
                l(2) =   0
                l(3) =   1
                l(4) =   1
     Q(r) pseudized with 0 coefficients 


     PseudoPot. # 2 for Ru read from file:
     /gpfs/group/ixd4/default/Simon/pseudopotentials/materialscloud/SSSP_1.3.0_PBE_efficiency/Ru_ONCV_PBE-1.0.oncvpsp.upf
     MD5 check sum: be037bb81c227cfb9b1461a9f099f4bd
     Pseudo is Norm-conserving, Zval = 16.0
     Generated using ONCVPSP code by D. R. Hamann
     Using radial grid of 1458 points,  6 beta functions with: 
                l(1) =   0
                l(2) =   0
                l(3) =   1
                l(4) =   1
                l(5) =   2
                l(6) =   2

     atomic species   valence    mass     pseudopotential
        O              6.00    15.99940     O ( 1.00)
        Ru            16.00   101.07000     Ru( 1.00)

      8 Sym. Ops., with inversion, found


                                    s                        frac. trans.

      isym =  1     identity                                     

 cryst.   s( 1) = (     1          0          0      )
                  (     0          1          0      )
                  (     0          0          1      )

 cart.    s( 1) = (  1.0000000  0.0000000  0.0000000 )
                  (  0.0000000  1.0000000  0.0000000 )
                  (  0.0000000  0.0000000  1.0000000 )


      isym =  2     180 deg rotation - cart. axis [0,0,1]        

 cryst.   s( 2) = (    -1          0          0      )
                  (     0         -1          0      )
                  (     0          0          1      )

 cart.    s( 2) = ( -1.0000000  0.0000000  0.0000000 )
                  (  0.0000000 -1.0000000  0.0000000 )
                  (  0.0000000  0.0000000  1.0000000 )


      isym =  3     180 deg rotation - cart. axis [0,1,0]        

 cryst.   s( 3) = (    -1          0          0      )
                  (     0          1          0      )
                  (     0          0         -1      )

 cart.    s( 3) = ( -1.0000000  0.0000000  0.0000000 )
                  (  0.0000000  1.0000000  0.0000000 )
                  (  0.0000000  0.0000000 -1.0000000 )


      isym =  4     180 deg rotation - cart. axis [1,0,0]        

 cryst.   s( 4) = (     1          0          0      )
                  (     0         -1          0      )
                  (     0          0         -1      )

 cart.    s( 4) = (  1.0000000  0.0000000  0.0000000 )
                  (  0.0000000 -1.0000000  0.0000000 )
                  (  0.0000000  0.0000000 -1.0000000 )


      isym =  5     inversion                                    

 cryst.   s( 5) = (    -1          0          0      )
                  (     0         -1          0      )
                  (     0          0         -1      )

 cart.    s( 5) = ( -1.0000000  0.0000000  0.0000000 )
                  (  0.0000000 -1.0000000  0.0000000 )
                  (  0.0000000  0.0000000 -1.0000000 )


      isym =  6     inv. 180 deg rotation - cart. axis [0,0,1]   

 cryst.   s( 6) = (     1          0          0      )
                  (     0          1          0      )
                  (     0          0         -1      )

 cart.    s( 6) = (  1.0000000  0.0000000  0.0000000 )
                  (  0.0000000  1.0000000  0.0000000 )
                  (  0.0000000  0.0000000 -1.0000000 )


      isym =  7     inv. 180 deg rotation - cart. axis [0,1,0]   

 cryst.   s( 7) = (     1          0          0      )
                  (     0         -1          0      )
                  (     0          0          1      )

 cart.    s( 7) = (  1.0000000  0.0000000  0.0000000 )
                  (  0.0000000 -1.0000000  0.0000000 )
                  (  0.0000000  0.0000000  1.0000000 )


      isym =  8     inv. 180 deg rotation - cart. axis [1,0,0]   

 cryst.   s( 8) = (    -1          0          0      )
                  (     0          1          0      )
                  (     0          0          1      )

 cart.    s( 8) = ( -1.0000000  0.0000000  0.0000000 )
                  (  0.0000000  1.0000000  0.0000000 )
                  (  0.0000000  0.0000000  1.0000000 )


   Cartesian axes

     site n.     atom                  positions (alat units)
         1           O   tau(   1) = (   0.0000000   0.4523832   0.9306796  )
         2           O   tau(   2) = (   0.5000000   0.4523832   0.9306853  )
         3           O   tau(   3) = (   0.0000000   0.0000000   1.0496602  )
         4           O   tau(   4) = (   0.5000000   0.0000000   1.0496596  )
         5           Ru  tau(   5) = (   0.2500002   0.0000000   1.2208414  )
         6           Ru  tau(   6) = (   0.7499998   0.0000000   1.2208414  )
         7           O   tau(   7) = (   0.2500012   0.2789784   1.2365445  )
         8           O   tau(   8) = (   0.7499988   0.2789784   1.2365445  )
         9           Ru  tau(   9) = (   0.0000000   0.4523832   1.2055330  )
        10           Ru  tau(  10) = (   0.5000000   0.4523832   1.2055384  )
        11           O   tau(  11) = (   0.2500012   0.6257879   1.2365445  )
        12           O   tau(  12) = (   0.7499988   0.6257879   1.2365445  )
        13           O   tau(  13) = (   0.0000000   0.0000000   1.4230924  )
        14           O   tau(  14) = (   0.5000000   0.0000000   1.4230928  )
        15           O   tau(  15) = (   0.0000000   0.4523832   1.5319475  )
        16           O   tau(  16) = (   0.5000000   0.4523832   1.5319946  )
        17           Ru  tau(  17) = (   0.0000000   0.0000000   1.7260944  )
        18           Ru  tau(  18) = (   0.5000000   0.0000000   1.7260944  )
        19           O   tau(  19) = (   0.2499978   0.1751871   1.7260944  )
        20           O   tau(  20) = (   0.7500022   0.1751871   1.7260944  )
        21           Ru  tau(  21) = (   0.2499815   0.4523832   1.7260944  )
        22           Ru  tau(  22) = (   0.7500185   0.4523832   1.7260944  )
        23           O   tau(  23) = (   0.2499978   0.7295801   1.7260944  )
        24           O   tau(  24) = (   0.7500022   0.7295801   1.7260944  )
        25           O   tau(  25) = (   0.0000000   0.4523832   1.9202379  )
        26           O   tau(  26) = (   0.5000000   0.4523832   1.9201907  )
        27           O   tau(  27) = (   0.0000000   0.0000000   2.0290930  )
        28           O   tau(  28) = (   0.5000000   0.0000000   2.0290926  )
        29           Ru  tau(  29) = (   0.2500002   0.0000000   2.2313474  )
        30           Ru  tau(  30) = (   0.7499998   0.0000000   2.2313474  )
        31           O   tau(  31) = (   0.2500012   0.2789784   2.2156443  )
        32           O   tau(  32) = (   0.7499988   0.2789784   2.2156443  )
        33           Ru  tau(  33) = (   0.0000000   0.4523832   2.2466558  )
        34           Ru  tau(  34) = (   0.5000000   0.4523832   2.2466504  )
        35           O   tau(  35) = (   0.2500012   0.6257879   2.2156443  )
        36           O   tau(  36) = (   0.7499988   0.6257879   2.2156443  )
        37           O   tau(  37) = (   0.0000000   0.0000000   2.4025252  )
        38           O   tau(  38) = (   0.5000000   0.0000000   2.4025258  )
        39           O   tau(  39) = (   0.0000000   0.4523832   2.5215058  )
        40           O   tau(  40) = (   0.5000000   0.4523832   2.5215001  )

   Crystallographic axes

     site n.     atom                  positions (cryst. coord.)
         1           O   tau(   1) = (  0.0000000  0.5000000  0.2695917  )
         2           O   tau(   2) = (  0.5000000  0.5000000  0.2695933  )
         3           O   tau(   3) = (  0.0000000  0.0000000  0.3040570  )
         4           O   tau(   4) = (  0.5000000  0.0000000  0.3040569  )
         5           Ru  tau(   5) = (  0.2500002  0.0000000  0.3536434  )
         6           Ru  tau(   6) = (  0.7499998  0.0000000  0.3536434  )
         7           O   tau(   7) = (  0.2500012  0.3083431  0.3581922  )
         8           O   tau(   8) = (  0.7499988  0.3083431  0.3581922  )
         9           Ru  tau(   9) = (  0.0000000  0.5000000  0.3492090  )
        10           Ru  tau(  10) = (  0.5000000  0.5000000  0.3492106  )
        11           O   tau(  11) = (  0.2500012  0.6916569  0.3581922  )
        12           O   tau(  12) = (  0.7499988  0.6916569  0.3581922  )
        13           O   tau(  13) = (  0.0000000  0.0000000  0.4122298  )
        14           O   tau(  14) = (  0.5000000  0.0000000  0.4122299  )
        15           O   tau(  15) = (  0.0000000  0.5000000  0.4437621  )
        16           O   tau(  16) = (  0.5000000  0.5000000  0.4437758  )
        17           Ru  tau(  17) = (  0.0000000  0.0000000  0.5000010  )
        18           Ru  tau(  18) = (  0.5000000  0.0000000  0.5000010  )
        19           O   tau(  19) = (  0.2499978  0.1936269  0.5000010  )
        20           O   tau(  20) = (  0.7500022  0.1936269  0.5000010  )
        21           Ru  tau(  21) = (  0.2499815  0.5000000  0.5000010  )
        22           Ru  tau(  22) = (  0.7500185  0.5000000  0.5000010  )
        23           O   tau(  23) = (  0.2499978  0.8063741  0.5000010  )
        24           O   tau(  24) = (  0.7500022  0.8063741  0.5000010  )
        25           O   tau(  25) = (  0.0000000  0.5000000  0.5562389  )
        26           O   tau(  26) = (  0.5000000  0.5000000  0.5562252  )
        27           O   tau(  27) = (  0.0000000  0.0000000  0.5877712  )
        28           O   tau(  28) = (  0.5000000  0.0000000  0.5877711  )
        29           Ru  tau(  29) = (  0.2500002  0.0000000  0.6463586  )
        30           Ru  tau(  30) = (  0.7499998  0.0000000  0.6463586  )
        31           O   tau(  31) = (  0.2500012  0.3083431  0.6418098  )
        32           O   tau(  32) = (  0.7499988  0.3083431  0.6418098  )
        33           Ru  tau(  33) = (  0.0000000  0.5000000  0.6507930  )
        34           Ru  tau(  34) = (  0.5000000  0.5000000  0.6507914  )
        35           O   tau(  35) = (  0.2500012  0.6916569  0.6418098  )
        36           O   tau(  36) = (  0.7499988  0.6916569  0.6418098  )
        37           O   tau(  37) = (  0.0000000  0.0000000  0.6959440  )
        38           O   tau(  38) = (  0.5000000  0.0000000  0.6959441  )
        39           O   tau(  39) = (  0.0000000  0.5000000  0.7304093  )
        40           O   tau(  40) = (  0.5000000  0.5000000  0.7304077  )

     number of k points=     1  Marzari-Vanderbilt smearing, width (Ry)=  0.0300
                       cart. coord. in units 2pi/alat
        k(    1) = (   0.2500000   0.2763144   0.0000000), wk =   2.0000000

                       cryst. coord.
        k(    1) = (   0.2500000   0.2500000   0.0000000), wk =   2.0000000

     Dense  grid:  1121423 G-vectors     FFT dimensions: (  90,  80, 320)

     Smooth grid:   283773 G-vectors     FFT dimensions: (  60,  54, 200)

     Dynamical RAM for                 wfc:       5.84 MB

     Dynamical RAM for     wfc (w. buffer):       5.84 MB

     Dynamical RAM for           str. fact:       1.71 MB

     Dynamical RAM for           local pot:       0.00 MB

     Dynamical RAM for          nlocal pot:      11.90 MB

     Dynamical RAM for                qrad:       3.59 MB

     Dynamical RAM for          rho,v,vnew:       5.20 MB

     Dynamical RAM for               rhoin:       1.73 MB

     Dynamical RAM for            rho*nmix:      13.69 MB

     Dynamical RAM for           G-vectors:       3.32 MB

     Dynamical RAM for          h,s,v(r/c):       2.14 MB

     Dynamical RAM for          <psi|beta>:       1.45 MB

     Dynamical RAM for                 psi:      11.69 MB

     Dynamical RAM for                hpsi:      11.69 MB

     Dynamical RAM for                spsi:      11.69 MB

     Dynamical RAM for      wfcinit/wfcrot:      13.79 MB

     Dynamical RAM for           addusdens:      67.59 MB

     Dynamical RAM for          addusforce:     114.24 MB

     Estimated static dynamical RAM per process >      40.26 MB

     Estimated max dynamical RAM per process >     168.19 MB

     Estimated total dynamical RAM >       3.28 GB

     Check: negative core charge=   -0.000001

     Initial potential from superposition of free atoms

     starting charge     359.9933, renormalised to     360.0000

     add environment contribution to local potential
     Polarization accuracy = 3.6E-12, # of iterations =  22

     negative rho (up, down):  5.616E-05 0.000E+00
     Starting wfcs are  232 randomized atomic wfcs
     Checking if some PAW data can be deallocated... 
       PAW data deallocated on    6 nodes for type:  1

     total cpu time spent up to now is      662.1 secs

     per-process dynamical memory:   136.6 Mb

     Self-consistent Calculation

     iteration #  1     ecut=    50.00 Ry     beta= 0.70
     Davidson diagonalization with overlap

---- Real-time Memory Report at c_bands before calling an iterative solver
           256 MiB given to the printing process from OS
           133 MiB allocation reported by mallinfo(arena+hblkhd)
         96336 MiB available memory on the node where the printing process lives
------------------
     ethr =  1.00E-02,  avg # of iterations =  2.0

     negative rho (up, down):  1.235E-06 0.000E+00

     total cpu time spent up to now is      945.8 secs

     total energy              =   -3424.16808986 Ry
     estimated scf accuracy    <      12.10961783 Ry
     electrostatic embedding   =      -0.00145032 Ry
     cavitation energy         =       0.01931972 Ry
     PV energy                 =      -0.08166648 Ry
     correction to one-el term =     208.19060265 Ry

     iteration #  2     ecut=    50.00 Ry     beta= 0.70
     Davidson diagonalization with overlap

---- Real-time Memory Report at c_bands before calling an iterative solver
           320 MiB given to the printing process from OS
           197 MiB allocation reported by mallinfo(arena+hblkhd)
         95017 MiB available memory on the node where the printing process lives
------------------
     ethr =  3.36E-03,  avg # of iterations =  2.0

     negative rho (up, down):  1.178E-08 0.000E+00

     total cpu time spent up to now is     1239.1 secs

     total energy              =   -3426.63086933 Ry
     estimated scf accuracy    <       6.21277466 Ry
     electrostatic embedding   =      -0.00139364 Ry
     cavitation energy         =       0.01967118 Ry
     PV energy                 =      -0.08042575 Ry
     correction to one-el term =     208.18968448 Ry

     iteration #  3     ecut=    50.00 Ry     beta= 0.70
     Davidson diagonalization with overlap

---- Real-time Memory Report at c_bands before calling an iterative solver
           334 MiB given to the printing process from OS
           197 MiB allocation reported by mallinfo(arena+hblkhd)
         95063 MiB available memory on the node where the printing process lives
------------------
     ethr =  1.73E-03,  avg # of iterations =  1.0

     negative rho (up, down):  2.034E-08 0.000E+00

     total cpu time spent up to now is     1526.8 secs

     total energy              =   -3427.20618288 Ry
     estimated scf accuracy    <       3.84522148 Ry
     electrostatic embedding   =      -0.00172632 Ry
     cavitation energy         =       0.01968371 Ry
     PV energy                 =      -0.08119067 Ry
     correction to one-el term =     208.19089913 Ry

     iteration #  4     ecut=    50.00 Ry     beta= 0.70
     Davidson diagonalization with overlap

---- Real-time Memory Report at c_bands before calling an iterative solver
           342 MiB given to the printing process from OS
           197 MiB allocation reported by mallinfo(arena+hblkhd)
         95059 MiB available memory on the node where the printing process lives
------------------
     ethr =  1.07E-03,  avg # of iterations =  1.0

     negative rho (up, down):  3.929E-08 0.000E+00

     total cpu time spent up to now is     1809.9 secs

     total energy              =   -3427.29983274 Ry
     estimated scf accuracy    <       0.21460016 Ry
     electrostatic embedding   =      -0.00164996 Ry
     cavitation energy         =       0.01987277 Ry
     PV energy                 =      -0.08081617 Ry
     correction to one-el term =     208.19043542 Ry

     iteration #  5     ecut=    50.00 Ry     beta= 0.70
     Davidson diagonalization with overlap

---- Real-time Memory Report at c_bands before calling an iterative solver
           350 MiB given to the printing process from OS
           197 MiB allocation reported by mallinfo(arena+hblkhd)
         95050 MiB available memory on the node where the printing process lives
------------------
     ethr =  5.96E-05,  avg # of iterations =  4.0

     negative rho (up, down):  3.916E-08 0.000E+00

     add environment contribution to local potential
     Polarization accuracy = 2.4E-12, # of iterations =  35

     total cpu time spent up to now is     2041.0 secs

     total energy              =   -3427.31584829 Ry
     estimated scf accuracy    <       0.06175955 Ry
     electrostatic embedding   =      -0.00165152 Ry
     cavitation energy         =       0.02014577 Ry
     PV energy                 =      -0.08055922 Ry
     correction to one-el term =     208.19021224 Ry

     iteration #  6     ecut=    50.00 Ry     beta= 0.70
     Davidson diagonalization with overlap

---- Real-time Memory Report at c_bands before calling an iterative solver
           359 MiB given to the printing process from OS
           197 MiB allocation reported by mallinfo(arena+hblkhd)
         95046 MiB available memory on the node where the printing process lives
------------------
     ethr =  1.72E-05,  avg # of iterations =  2.0

     negative rho (up, down):  3.905E-08 0.000E+00

     total cpu time spent up to now is     2299.6 secs

     total energy              =   -3427.32506597 Ry
     estimated scf accuracy    <       0.10641507 Ry
     electrostatic embedding   =      -0.00704965 Ry
     cavitation energy         =       0.02046556 Ry
     PV energy                 =      -0.08034513 Ry
     correction to one-el term =     198.87476351 Ry

     iteration #  7     ecut=    50.00 Ry     beta= 0.70
     Davidson diagonalization with overlap

---- Real-time Memory Report at c_bands before calling an iterative solver
           365 MiB given to the printing process from OS
           197 MiB allocation reported by mallinfo(arena+hblkhd)
         95045 MiB available memory on the node where the printing process lives
------------------
     ethr =  1.72E-05,  avg # of iterations =  1.0

     negative rho (up, down):  2.387E-08 0.000E+00

     add environment contribution to local potential
     Polarization accuracy = 9.7E-12, # of iterations =  36

     total cpu time spent up to now is     2575.4 secs

     total energy              =   -3427.32623381 Ry
     estimated scf accuracy    <       0.01638573 Ry
     electrostatic embedding   =      -0.00739732 Ry
     cavitation energy         =       0.02092280 Ry
     PV energy                 =      -0.08003093 Ry
     correction to one-el term =     198.87580790 Ry

     iteration #  8     ecut=    50.00 Ry     beta= 0.70
     Davidson diagonalization with overlap

---- Real-time Memory Report at c_bands before calling an iterative solver
           369 MiB given to the printing process from OS
           197 MiB allocation reported by mallinfo(arena+hblkhd)
         95033 MiB available memory on the node where the printing process lives
------------------
     ethr =  4.55E-06,  avg # of iterations = 11.0

     add environment contribution to local potential
     Polarization accuracy = 4.6E-12, # of iterations =  38

     total cpu time spent up to now is     2881.4 secs

     total energy              =   -3427.32905185 Ry
     estimated scf accuracy    <       0.01669445 Ry
     electrostatic embedding   =      -0.00947249 Ry
     cavitation energy         =       0.02101089 Ry
     PV energy                 =      -0.07997554 Ry
     correction to one-el term =     196.27980482 Ry

     iteration #  9     ecut=    50.00 Ry     beta= 0.70
     Davidson diagonalization with overlap

---- Real-time Memory Report at c_bands before calling an iterative solver
           379 MiB given to the printing process from OS
           197 MiB allocation reported by mallinfo(arena+hblkhd)
         95488 MiB available memory on the node where the printing process lives
------------------
     ethr =  4.55E-06,  avg # of iterations =  1.0

     add environment contribution to local potential
     Polarization accuracy = 3.7E-12, # of iterations =  39

     total cpu time spent up to now is     3178.7 secs

     total energy              =   -3427.32901721 Ry
     estimated scf accuracy    <       0.00751779 Ry
     electrostatic embedding   =      -0.01014606 Ry
     cavitation energy         =       0.02114993 Ry
     PV energy                 =      -0.07988550 Ry
     correction to one-el term =     195.86174930 Ry

     iteration # 10     ecut=    50.00 Ry     beta= 0.70
     Davidson diagonalization with overlap

---- Real-time Memory Report at c_bands before calling an iterative solver
           407 MiB given to the printing process from OS
           221 MiB allocation reported by mallinfo(arena+hblkhd)
         95463 MiB available memory on the node where the printing process lives
------------------
     ethr =  2.09E-06,  avg # of iterations =  1.0

     add environment contribution to local potential
     Polarization accuracy = 6.0E-12, # of iterations =  39

     total cpu time spent up to now is     3441.4 secs

     total energy              =   -3427.32941838 Ry
     estimated scf accuracy    <       0.00127353 Ry
     electrostatic embedding   =      -0.01106165 Ry
     cavitation energy         =       0.02131954 Ry
     PV energy                 =      -0.07978930 Ry
     correction to one-el term =     195.46510501 Ry

     iteration # 11     ecut=    50.00 Ry     beta= 0.70
     Davidson diagonalization with overlap

---- Real-time Memory Report at c_bands before calling an iterative solver
           411 MiB given to the printing process from OS
           221 MiB allocation reported by mallinfo(arena+hblkhd)
         95476 MiB available memory on the node where the printing process lives
------------------
     ethr =  3.54E-07,  avg # of iterations =  1.0

     negative rho (up, down):  1.008E-08 0.000E+00

     add environment contribution to local potential
     Polarization accuracy = 4.9E-12, # of iterations =  38

     total cpu time spent up to now is     3699.8 secs

     total energy              =   -3427.32947245 Ry
     estimated scf accuracy    <       0.00084404 Ry
     electrostatic embedding   =      -0.01129120 Ry
     cavitation energy         =       0.02135498 Ry
     PV energy                 =      -0.07977756 Ry
     correction to one-el term =     195.42957899 Ry

     iteration # 12     ecut=    50.00 Ry     beta= 0.70
     Davidson diagonalization with overlap

---- Real-time Memory Report at c_bands before calling an iterative solver
           415 MiB given to the printing process from OS
           221 MiB allocation reported by mallinfo(arena+hblkhd)
         95473 MiB available memory on the node where the printing process lives
------------------
     ethr =  2.34E-07,  avg # of iterations =  1.0

     negative rho (up, down):  1.585E-06 0.000E+00

     add environment contribution to local potential
     Polarization accuracy = 3.9E-12, # of iterations =  38

     total cpu time spent up to now is     4004.5 secs

     total energy              =   -3427.32951531 Ry
     estimated scf accuracy    <       0.00032336 Ry
     electrostatic embedding   =      -0.01148268 Ry
     cavitation energy         =       0.02138106 Ry
     PV energy                 =      -0.07977183 Ry
     correction to one-el term =     195.44494819 Ry

     iteration # 13     ecut=    50.00 Ry     beta= 0.70
     Davidson diagonalization with overlap

---- Real-time Memory Report at c_bands before calling an iterative solver
           418 MiB given to the printing process from OS
           221 MiB allocation reported by mallinfo(arena+hblkhd)
         95472 MiB available memory on the node where the printing process lives
------------------
     ethr =  8.98E-08,  avg # of iterations =  1.0

     negative rho (up, down):  2.238E-05 0.000E+00

     add environment contribution to local potential
     Polarization accuracy = 3.8E-12, # of iterations =  38

     total cpu time spent up to now is     4317.0 secs

     total energy              =   -3427.32955386 Ry
     estimated scf accuracy    <       0.00001567 Ry
     electrostatic embedding   =      -0.01174163 Ry
     cavitation energy         =       0.02141352 Ry
     PV energy                 =      -0.07976598 Ry
     correction to one-el term =     195.47597843 Ry

     iteration # 14     ecut=    50.00 Ry     beta= 0.70
     Davidson diagonalization with overlap

---- Real-time Memory Report at c_bands before calling an iterative solver
           421 MiB given to the printing process from OS
           221 MiB allocation reported by mallinfo(arena+hblkhd)
         95473 MiB available memory on the node where the printing process lives
------------------
     ethr =  4.35E-09,  avg # of iterations =  6.0

     negative rho (up, down):  3.149E-05 0.000E+00

     add environment contribution to local potential
     Polarization accuracy = 2.6E-12, # of iterations =  39

     total cpu time spent up to now is     4614.6 secs

     total energy              =   -3427.32955824 Ry
     estimated scf accuracy    <       0.00000714 Ry
     electrostatic embedding   =      -0.01169692 Ry
     cavitation energy         =       0.02139569 Ry
     PV energy                 =      -0.07978948 Ry
     correction to one-el term =     195.62821501 Ry

     iteration # 15     ecut=    50.00 Ry     beta= 0.70
     Davidson diagonalization with overlap

---- Real-time Memory Report at c_bands before calling an iterative solver
           425 MiB given to the printing process from OS
           221 MiB allocation reported by mallinfo(arena+hblkhd)
         95473 MiB available memory on the node where the printing process lives
------------------
     ethr =  1.98E-09,  avg # of iterations =  2.0

     negative rho (up, down):  6.727E-05 0.000E+00

     add environment contribution to local potential
     Polarization accuracy = 1.9E-12, # of iterations =  39

     total cpu time spent up to now is     4871.0 secs

     total energy              =   -3427.32955967 Ry
     estimated scf accuracy    <       0.00000293 Ry
     electrostatic embedding   =      -0.01171678 Ry
     cavitation energy         =       0.02139856 Ry
     PV energy                 =      -0.07978935 Ry
     correction to one-el term =     195.62212651 Ry

     iteration # 16     ecut=    50.00 Ry     beta= 0.70
     Davidson diagonalization with overlap

---- Real-time Memory Report at c_bands before calling an iterative solver
           428 MiB given to the printing process from OS
           221 MiB allocation reported by mallinfo(arena+hblkhd)
         95474 MiB available memory on the node where the printing process lives
------------------
     ethr =  8.15E-10,  avg # of iterations =  2.0

     negative rho (up, down):  6.981E-05 0.000E+00

     add environment contribution to local potential
     Polarization accuracy = 1.8E-12, # of iterations =  39

     total cpu time spent up to now is     5219.1 secs

     total energy              =   -3427.32956075 Ry
     estimated scf accuracy    <       0.00000123 Ry
     electrostatic embedding   =      -0.01169107 Ry
     cavitation energy         =       0.02139202 Ry
     PV energy                 =      -0.07979655 Ry
     correction to one-el term =     195.66515100 Ry

     iteration # 17     ecut=    50.00 Ry     beta= 0.70
     Davidson diagonalization with overlap

---- Real-time Memory Report at c_bands before calling an iterative solver
           433 MiB given to the printing process from OS
           221 MiB allocation reported by mallinfo(arena+hblkhd)
         95468 MiB available memory on the node where the printing process lives
------------------
     ethr =  3.41E-10,  avg # of iterations =  5.0

     negative rho (up, down):  9.892E-05 0.000E+00

     add environment contribution to local potential
     Polarization accuracy = 6.1E-12, # of iterations =  37

     total cpu time spent up to now is     5476.7 secs

     total energy              =   -3427.32956130 Ry
     estimated scf accuracy    <       0.00000050 Ry
     electrostatic embedding   =      -0.01167684 Ry
     cavitation energy         =       0.02138957 Ry
     PV energy                 =      -0.07979868 Ry
     correction to one-el term =     195.67416306 Ry

     iteration # 18     ecut=    50.00 Ry     beta= 0.70
     Davidson diagonalization with overlap

---- Real-time Memory Report at c_bands before calling an iterative solver
           436 MiB given to the printing process from OS
           221 MiB allocation reported by mallinfo(arena+hblkhd)
         95468 MiB available memory on the node where the printing process lives
------------------
     ethr =  1.40E-10,  avg # of iterations =  1.0

     negative rho (up, down):  1.506E-04 0.000E+00

     add environment contribution to local potential
     Polarization accuracy = 6.0E-12, # of iterations =  37

     total cpu time spent up to now is     5751.8 secs

     total energy              =   -3427.32956212 Ry
     estimated scf accuracy    <       0.00000033 Ry
     electrostatic embedding   =      -0.01166509 Ry
     cavitation energy         =       0.02138705 Ry
     PV energy                 =      -0.07980156 Ry
     correction to one-el term =     195.68909434 Ry

     iteration # 19     ecut=    50.00 Ry     beta= 0.70
     Davidson diagonalization with overlap

---- Real-time Memory Report at c_bands before calling an iterative solver
           439 MiB given to the printing process from OS
           221 MiB allocation reported by mallinfo(arena+hblkhd)
         95470 MiB available memory on the node where the printing process lives
------------------
     ethr =  9.27E-11,  avg # of iterations =  1.0

     negative rho (up, down):  1.492E-04 0.000E+00

     add environment contribution to local potential
     Polarization accuracy = 3.2E-12, # of iterations =  37

     total cpu time spent up to now is     6086.2 secs

     total energy              =   -3427.32956339 Ry
     estimated scf accuracy    <       0.00000024 Ry
     electrostatic embedding   =      -0.01166526 Ry
     cavitation energy         =       0.02138669 Ry
     PV energy                 =      -0.07980261 Ry
     correction to one-el term =     195.69779481 Ry

     iteration # 20     ecut=    50.00 Ry     beta= 0.70
     Davidson diagonalization with overlap

---- Real-time Memory Report at c_bands before calling an iterative solver
           441 MiB given to the printing process from OS
           221 MiB allocation reported by mallinfo(arena+hblkhd)
         95470 MiB available memory on the node where the printing process lives
------------------
     ethr =  6.67E-11,  avg # of iterations =  1.0

     negative rho (up, down):  1.765E-04 0.000E+00

     add environment contribution to local potential
     Polarization accuracy = 6.6E-12, # of iterations =  38

     total cpu time spent up to now is     6338.5 secs

     total energy              =   -3427.32956382 Ry
     estimated scf accuracy    <       0.00000023 Ry
     electrostatic embedding   =      -0.01166449 Ry
     cavitation energy         =       0.02138680 Ry
     PV energy                 =      -0.07980212 Ry
     correction to one-el term =     195.69682768 Ry

     iteration # 21     ecut=    50.00 Ry     beta= 0.70
     Davidson diagonalization with overlap

---- Real-time Memory Report at c_bands before calling an iterative solver
           443 MiB given to the printing process from OS
           221 MiB allocation reported by mallinfo(arena+hblkhd)
         95467 MiB available memory on the node where the printing process lives
------------------
     ethr =  6.44E-11,  avg # of iterations =  2.0

     negative rho (up, down):  1.975E-04 0.000E+00

     add environment contribution to local potential
     Polarization accuracy = 6.7E-12, # of iterations =  38

     total cpu time spent up to now is     6660.7 secs

     total energy              =   -3427.32956577 Ry
     estimated scf accuracy    <       0.00000021 Ry
     electrostatic embedding   =      -0.01166274 Ry
     cavitation energy         =       0.02138684 Ry
     PV energy                 =      -0.07980170 Ry
     correction to one-el term =     195.69907768 Ry

     iteration # 22     ecut=    50.00 Ry     beta= 0.70
     Davidson diagonalization with overlap

---- Real-time Memory Report at c_bands before calling an iterative solver
           445 MiB given to the printing process from OS
           221 MiB allocation reported by mallinfo(arena+hblkhd)
         95447 MiB available memory on the node where the printing process lives
------------------
     ethr =  5.80E-11,  avg # of iterations =  1.0

     negative rho (up, down):  2.215E-04 0.000E+00

     add environment contribution to local potential
     Polarization accuracy = 3.1E-12, # of iterations =  37

     total cpu time spent up to now is     6946.8 secs

     total energy              =   -3427.32956738 Ry
     estimated scf accuracy    <       0.00000021 Ry
     electrostatic embedding   =      -0.01166130 Ry
     cavitation energy         =       0.02138680 Ry
     PV energy                 =      -0.07980154 Ry
     correction to one-el term =     195.70123361 Ry

     iteration # 23     ecut=    50.00 Ry     beta= 0.70
     Davidson diagonalization with overlap

---- Real-time Memory Report at c_bands before calling an iterative solver
           446 MiB given to the printing process from OS
           221 MiB allocation reported by mallinfo(arena+hblkhd)
         95454 MiB available memory on the node where the printing process lives
------------------
     ethr =  5.77E-11,  avg # of iterations =  2.0

     negative rho (up, down):  2.018E-04 0.000E+00

     add environment contribution to local potential
     Polarization accuracy = 3.0E-12, # of iterations =  37

     total cpu time spent up to now is     7270.7 secs

     total energy              =   -3427.32957082 Ry
     estimated scf accuracy    <       0.00000016 Ry
     electrostatic embedding   =      -0.01165865 Ry
     cavitation energy         =       0.02138683 Ry
     PV energy                 =      -0.07980089 Ry
     correction to one-el term =     195.70348798 Ry

     iteration # 24     ecut=    50.00 Ry     beta= 0.70
     Davidson diagonalization with overlap

---- Real-time Memory Report at c_bands before calling an iterative solver
           448 MiB given to the printing process from OS
           221 MiB allocation reported by mallinfo(arena+hblkhd)
         95466 MiB available memory on the node where the printing process lives
------------------
     ethr =  4.58E-11,  avg # of iterations =  1.0

     negative rho (up, down):  2.218E-04 0.000E+00

     add environment contribution to local potential
     Polarization accuracy = 7.5E-12, # of iterations =  38

     total cpu time spent up to now is     7504.2 secs

     total energy              =   -3427.32957283 Ry
     estimated scf accuracy    <       0.00000014 Ry
     electrostatic embedding   =      -0.01165882 Ry
     cavitation energy         =       0.02138728 Ry
     PV energy                 =      -0.07980000 Ry
     correction to one-el term =     195.70015673 Ry

     iteration # 25     ecut=    50.00 Ry     beta= 0.70
     Davidson diagonalization with overlap

---- Real-time Memory Report at c_bands before calling an iterative solver
           450 MiB given to the printing process from OS
           221 MiB allocation reported by mallinfo(arena+hblkhd)
         95463 MiB available memory on the node where the printing process lives
------------------
     ethr =  3.79E-11,  avg # of iterations =  3.0

     negative rho (up, down):  2.250E-04 0.000E+00

     add environment contribution to local potential
     Polarization accuracy = 4.4E-12, # of iterations =  37

     total cpu time spent up to now is     7824.4 secs

     total energy              =   -3427.32958023 Ry
     estimated scf accuracy    <       0.00000017 Ry
     electrostatic embedding   =      -0.01165328 Ry
     cavitation energy         =       0.02138669 Ry
     PV energy                 =      -0.07980026 Ry
     correction to one-el term =     195.70460832 Ry

     iteration # 26     ecut=    50.00 Ry     beta= 0.70
     Davidson diagonalization with overlap

---- Real-time Memory Report at c_bands before calling an iterative solver
           453 MiB given to the printing process from OS
           221 MiB allocation reported by mallinfo(arena+hblkhd)
         95462 MiB available memory on the node where the printing process lives
------------------
     ethr =  3.79E-11,  avg # of iterations =  2.0

     negative rho (up, down):  2.066E-04 0.000E+00

     add environment contribution to local potential
     Polarization accuracy = 9.1E-12, # of iterations =  38

     total cpu time spent up to now is     8108.6 secs

     total energy              =   -3427.32958826 Ry
     estimated scf accuracy    <       0.00000017 Ry
     electrostatic embedding   =      -0.01165229 Ry
     cavitation energy         =       0.02138684 Ry
     PV energy                 =      -0.07979994 Ry
     correction to one-el term =     195.70475230 Ry

     iteration # 27     ecut=    50.00 Ry     beta= 0.70
     Davidson diagonalization with overlap

---- Real-time Memory Report at c_bands before calling an iterative solver
           454 MiB given to the printing process from OS
           221 MiB allocation reported by mallinfo(arena+hblkhd)
         95458 MiB available memory on the node where the printing process lives
------------------
     ethr =  3.79E-11,  avg # of iterations =  5.0

     negative rho (up, down):  1.925E-04 0.000E+00

     add environment contribution to local potential
     Polarization accuracy = 5.9E-12, # of iterations =  37

     total cpu time spent up to now is     8369.7 secs

     total energy              =   -3427.32960280 Ry
     estimated scf accuracy    <       0.00000007 Ry
     electrostatic embedding   =      -0.01165150 Ry
     cavitation energy         =       0.02138663 Ry
     PV energy                 =      -0.07980052 Ry
     correction to one-el term =     195.70525656 Ry

     iteration # 28     ecut=    50.00 Ry     beta= 0.70
     Davidson diagonalization with overlap

---- Real-time Memory Report at c_bands before calling an iterative solver
           460 MiB given to the printing process from OS
           221 MiB allocation reported by mallinfo(arena+hblkhd)
         95456 MiB available memory on the node where the printing process lives
------------------
     ethr =  1.98E-11,  avg # of iterations =  2.0

     negative rho (up, down):  1.916E-04 0.000E+00

     add environment contribution to local potential
     Polarization accuracy = 5.2E-12, # of iterations =  38

     total cpu time spent up to now is     8725.8 secs

     total energy              =   -3427.32960223 Ry
     estimated scf accuracy    <       0.00000006 Ry
     electrostatic embedding   =      -0.01165329 Ry
     cavitation energy         =       0.02138666 Ry
     PV energy                 =      -0.07980071 Ry
     correction to one-el term =     195.70363936 Ry

     iteration # 29     ecut=    50.00 Ry     beta= 0.70
     Davidson diagonalization with overlap

---- Real-time Memory Report at c_bands before calling an iterative solver
           462 MiB given to the printing process from OS
           221 MiB allocation reported by mallinfo(arena+hblkhd)
         95455 MiB available memory on the node where the printing process lives
------------------
     ethr =  1.61E-11,  avg # of iterations =  5.0

     negative rho (up, down):  1.840E-04 0.000E+00

     add environment contribution to local potential
     Polarization accuracy = 3.5E-12, # of iterations =  37

     total cpu time spent up to now is     9030.5 secs

     total energy              =   -3427.32961949 Ry
     estimated scf accuracy    <       0.00000004 Ry
     electrostatic embedding   =      -0.01165412 Ry
     cavitation energy         =       0.02138642 Ry
     PV energy                 =      -0.07980149 Ry
     correction to one-el term =     195.70444699 Ry

     iteration # 30     ecut=    50.00 Ry     beta= 0.70
     Davidson diagonalization with overlap

---- Real-time Memory Report at c_bands before calling an iterative solver
           464 MiB given to the printing process from OS
           221 MiB allocation reported by mallinfo(arena+hblkhd)
         95456 MiB available memory on the node where the printing process lives
------------------
     ethr =  1.12E-11,  avg # of iterations =  2.0

     negative rho (up, down):  1.794E-04 0.000E+00

     add environment contribution to local potential
     Polarization accuracy = 4.3E-12, # of iterations =  37

     total cpu time spent up to now is     9297.1 secs

     total energy              =   -3427.32961594 Ry
     estimated scf accuracy    <       0.00000002 Ry
     electrostatic embedding   =      -0.01165821 Ry
     cavitation energy         =       0.02138657 Ry
     PV energy                 =      -0.07980175 Ry
     correction to one-el term =     195.70252293 Ry

     iteration # 31     ecut=    50.00 Ry     beta= 0.70
     Davidson diagonalization with overlap

---- Real-time Memory Report at c_bands before calling an iterative solver
           466 MiB given to the printing process from OS
           221 MiB allocation reported by mallinfo(arena+hblkhd)
         95451 MiB available memory on the node where the printing process lives
------------------
     ethr =  5.67E-12,  avg # of iterations =  5.0

     negative rho (up, down):  1.737E-04 0.000E+00

     add environment contribution to local potential
     Polarization accuracy = 3.7E-12, # of iterations =  37

     total cpu time spent up to now is     9636.7 secs

     total energy              =   -3427.32962385 Ry
     estimated scf accuracy    <       0.00000001 Ry
     electrostatic embedding   =      -0.01165907 Ry
     cavitation energy         =       0.02138661 Ry
     PV energy                 =      -0.07980180 Ry
     correction to one-el term =     195.70178309 Ry

     iteration # 32     ecut=    50.00 Ry     beta= 0.70
     Davidson diagonalization with overlap

---- Real-time Memory Report at c_bands before calling an iterative solver
           468 MiB given to the printing process from OS
           221 MiB allocation reported by mallinfo(arena+hblkhd)
         95455 MiB available memory on the node where the printing process lives
------------------
     ethr =  2.90E-12,  avg # of iterations =  5.0

     negative rho (up, down):  1.749E-04 0.000E+00

     add environment contribution to local potential
     Polarization accuracy = 3.1E-12, # of iterations =  37

     total cpu time spent up to now is     9917.6 secs

     total energy              =   -3427.32962458 Ry
     estimated scf accuracy    <          9.2E-09 Ry
     electrostatic embedding   =      -0.01166222 Ry
     cavitation energy         =       0.02138689 Ry
     PV energy                 =      -0.07980157 Ry
     correction to one-el term =     195.69932035 Ry

     iteration # 33     ecut=    50.00 Ry     beta= 0.70
     Davidson diagonalization with overlap

---- Real-time Memory Report at c_bands before calling an iterative solver
           468 MiB given to the printing process from OS
           221 MiB allocation reported by mallinfo(arena+hblkhd)
         95455 MiB available memory on the node where the printing process lives
------------------
     ethr =  2.57E-12,  avg # of iterations =  1.0

     negative rho (up, down):  1.736E-04 0.000E+00

     add environment contribution to local potential
     Polarization accuracy = 1.8E-12, # of iterations =  37

     total cpu time spent up to now is    10191.2 secs

     total energy              =   -3427.32962480 Ry
     estimated scf accuracy    <          5.8E-09 Ry
     electrostatic embedding   =      -0.01166175 Ry
     cavitation energy         =       0.02138686 Ry
     PV energy                 =      -0.07980159 Ry
     correction to one-el term =     195.69969568 Ry

     iteration # 34     ecut=    50.00 Ry     beta= 0.70
     Davidson diagonalization with overlap

---- Real-time Memory Report at c_bands before calling an iterative solver
           469 MiB given to the printing process from OS
           221 MiB allocation reported by mallinfo(arena+hblkhd)
         95435 MiB available memory on the node where the printing process lives
------------------
     ethr =  1.61E-12,  avg # of iterations =  4.0

     negative rho (up, down):  1.748E-04 0.000E+00

     add environment contribution to local potential
     Polarization accuracy = 1.8E-12, # of iterations =  37

     total cpu time spent up to now is    10520.7 secs

     total energy              =   -3427.32962508 Ry
     estimated scf accuracy    <          7.2E-09 Ry
     electrostatic embedding   =      -0.01166370 Ry
     cavitation energy         =       0.02138716 Ry
     PV energy                 =      -0.07980110 Ry
     correction to one-el term =     195.69776645 Ry

     iteration # 35     ecut=    50.00 Ry     beta= 0.70
     Davidson diagonalization with overlap

---- Real-time Memory Report at c_bands before calling an iterative solver
           471 MiB given to the printing process from OS
           221 MiB allocation reported by mallinfo(arena+hblkhd)
         95431 MiB available memory on the node where the printing process lives
------------------
     ethr =  1.61E-12,  avg # of iterations =  2.0

     negative rho (up, down):  1.763E-04 0.000E+00

     add environment contribution to local potential
     Polarization accuracy = 2.5E-12, # of iterations =  37

     total cpu time spent up to now is    10808.0 secs

     total energy              =   -3427.32962584 Ry
     estimated scf accuracy    <          4.4E-09 Ry
     electrostatic embedding   =      -0.01166313 Ry
     cavitation energy         =       0.02138715 Ry
     PV energy                 =      -0.07980105 Ry
     correction to one-el term =     195.69803212 Ry

     iteration # 36     ecut=    50.00 Ry     beta= 0.70
     Davidson diagonalization with overlap

---- Real-time Memory Report at c_bands before calling an iterative solver
           471 MiB given to the printing process from OS
           221 MiB allocation reported by mallinfo(arena+hblkhd)
         95434 MiB available memory on the node where the printing process lives
------------------
     ethr =  1.21E-12,  avg # of iterations =  2.0

     negative rho (up, down):  1.789E-04 0.000E+00

     add environment contribution to local potential
     Polarization accuracy = 2.9E-12, # of iterations =  38

     total cpu time spent up to now is    11132.8 secs

     total energy              =   -3427.32962760 Ry
     estimated scf accuracy    <          2.6E-09 Ry
     electrostatic embedding   =      -0.01166261 Ry
     cavitation energy         =       0.02138715 Ry
     PV energy                 =      -0.07980096 Ry
     correction to one-el term =     195.69823031 Ry

     iteration # 37     ecut=    50.00 Ry     beta= 0.70
     Davidson diagonalization with overlap

---- Real-time Memory Report at c_bands before calling an iterative solver
           473 MiB given to the printing process from OS
           221 MiB allocation reported by mallinfo(arena+hblkhd)
         95450 MiB available memory on the node where the printing process lives
------------------
     ethr =  7.27E-13,  avg # of iterations =  4.0

     negative rho (up, down):  1.798E-04 0.000E+00

     add environment contribution to local potential
     Polarization accuracy = 1.5E-12, # of iterations =  37

     total cpu time spent up to now is    11437.7 secs

     total energy              =   -3427.32962815 Ry
     estimated scf accuracy    <          1.2E-09 Ry
     electrostatic embedding   =      -0.01166158 Ry
     cavitation energy         =       0.02138710 Ry
     PV energy                 =      -0.07980094 Ry
     correction to one-el term =     195.69888178 Ry

     iteration # 38     ecut=    50.00 Ry     beta= 0.70
     Davidson diagonalization with overlap

---- Real-time Memory Report at c_bands before calling an iterative solver
           473 MiB given to the printing process from OS
           221 MiB allocation reported by mallinfo(arena+hblkhd)
         95448 MiB available memory on the node where the printing process lives
------------------
     ethr =  3.36E-13,  avg # of iterations =  5.0

     negative rho (up, down):  1.778E-04 0.000E+00

     the potential shift due to the Gaussian-smeared nuclei is    -1.2953 ev

     total cpu time spent up to now is    11761.1 secs

     End of self-consistent calculation

          k = 0.2500 0.2763 0.0000 ( 35484 PWs)   bands (ev):

   -79.8962 -79.8925 -79.8779 -79.8742 -79.6711 -79.6678 -79.6533 -79.6499
   -79.2108 -79.2075 -79.0973 -79.0935 -50.2448 -50.2401 -50.2265 -50.2218
   -49.9836 -49.9801 -49.9657 -49.9623 -49.8819 -49.8636 -49.8138 -49.7954
   -49.6990 -49.6947 -49.5644 -49.5466 -49.5147 -49.5031 -49.4969 -49.4931
   -49.4853 -49.4775 -49.4752 -49.4684 -49.4593 -49.4501 -49.2739 -49.2695
   -49.1187 -49.0380 -49.0289 -48.9876 -48.9769 -48.9610 -48.8999 -48.8870
   -25.7160 -25.6469 -25.5322 -25.2933 -25.2599 -25.1941 -24.5457 -24.5245
   -24.5029 -24.4475 -24.4227 -24.3137 -24.1797 -24.0323 -24.0224 -23.8884
   -23.7483 -23.6186 -23.5564 -23.4452 -23.3469 -23.3221 -23.2932 -23.1822
   -23.1623 -23.0944 -23.0664 -23.0050 -13.9843 -13.9670 -13.8518 -13.4087
   -13.3885 -13.2892 -12.9510 -12.9312 -12.8993 -12.8818 -12.7363 -12.6848
   -12.5321 -12.4090 -12.3694 -12.2011 -12.1633 -12.0963 -12.0737 -12.0497
   -11.6777 -11.6691 -11.6210 -11.5961 -11.5874 -11.4927 -11.3788 -11.1025
   -11.0569 -11.0310 -11.0135 -10.9862 -10.8840 -10.8672 -10.7942 -10.6208
   -10.6008 -10.5833 -10.5562 -10.4836 -10.3214 -10.1733 -10.1561 -10.0539
   -10.0092  -9.9807  -9.8900  -9.8623  -9.7919  -9.6960  -9.6611  -9.6060
    -9.5514  -9.3834  -9.3356  -9.3078  -9.2361  -9.2004  -9.1636  -9.1212
    -9.0618  -8.9621  -8.9073  -8.7903  -8.7287  -8.6142  -8.5930  -8.5048
    -8.4499  -8.4196  -8.3700  -8.2360  -8.2336  -8.1718  -8.1146  -8.0560
    -7.9463  -7.8664  -7.8033  -7.7932  -7.7217  -7.6934  -7.5871  -7.4565
    -6.8440  -6.8237  -6.6604  -6.5750  -6.5394  -6.4828  -6.4253  -6.3923
    -6.3575  -6.3496  -6.3015  -6.2572  -6.2108  -6.1799  -6.1524  -6.0308
    -5.9525  -5.9095  -5.8668  -5.7535  -5.7215  -5.5698  -5.5192  -5.4825
    -5.4176  -5.3390  -5.3167  -5.2515  -5.0477  -4.9889  -4.9606  -4.9456
    -4.8816  -4.8610  -4.4894  -4.4855  -4.1736  -3.7303  -3.6588  -3.6370
    -3.4597  -3.3624  -2.8370  -2.5238  -2.4776  -2.2996  -2.1754  -2.1339
    -2.1226  -2.0727  -2.0516  -1.7030  -1.6418  -1.6264  -1.3060  -1.0326

     occupation numbers 
     1.0000   1.0000   1.0000   1.0000   1.0000   1.0000   1.0000   1.0000
     1.0000   1.0000   1.0000   1.0000   1.0000   1.0000   1.0000   1.0000
     1.0000   1.0000   1.0000   1.0000   1.0000   1.0000   1.0000   1.0000
     1.0000   1.0000   1.0000   1.0000   1.0000   1.0000   1.0000   1.0000
     1.0000   1.0000   1.0000   1.0000   1.0000   1.0000   1.0000   1.0000
     1.0000   1.0000   1.0000   1.0000   1.0000   1.0000   1.0000   1.0000
     1.0000   1.0000   1.0000   1.0000   1.0000   1.0000   1.0000   1.0000
     1.0000   1.0000   1.0000   1.0000   1.0000   1.0000   1.0000   1.0000
     1.0000   1.0000   1.0000   1.0000   1.0000   1.0000   1.0000   1.0000
     1.0000   1.0000   1.0000   1.0000   1.0000   1.0000   1.0000   1.0000
     1.0000   1.0000   1.0000   1.0000   1.0000   1.0000   1.0000   1.0000
     1.0000   1.0000   1.0000   1.0000   1.0000   1.0000   1.0000   1.0000
     1.0000   1.0000   1.0000   1.0000   1.0000   1.0000   1.0000   1.0000
     1.0000   1.0000   1.0000   1.0000   1.0000   1.0000   1.0000   1.0000
     1.0000   1.0000   1.0000   1.0000   1.0000   1.0000   1.0000   1.0000
     1.0000   1.0000   1.0000   1.0000   1.0000   1.0000   1.0000   1.0000
     1.0000   1.0000   1.0000   1.0000   1.0000   1.0000   1.0000   1.0000
     1.0000   1.0000   1.0000   1.0000   1.0000   1.0000   1.0000   1.0000
     1.0000   1.0000   1.0000   1.0000   1.0000   1.0000   1.0000   1.0000
     1.0000   1.0000   1.0000   1.0000   1.0000   1.0000   1.0000   1.0000
     1.0054   1.0065   1.0233   1.0390   1.0468   1.0598   1.0721   1.0778
     1.0819   1.0825   1.0824   1.0755   1.0593   1.0427   1.0238   0.8905
     0.7672   0.6914   0.6132   0.4094   0.3568   0.1605   0.1163   0.0904
     0.0558   0.0292   0.0240   0.0131   0.0014   0.0007   0.0005   0.0004
     0.0002   0.0001   0.0000   0.0000   0.0000   0.0000   0.0000   0.0000
     0.0000   0.0000   0.0000   0.0000   0.0000   0.0000   0.0000   0.0000
     0.0000   0.0000   0.0000   0.0000   0.0000   0.0000   0.0000   0.0000

     the Fermi energy is    -5.7483 ev

!    total energy              =   -3427.32962954 Ry
     estimated scf accuracy    <          8.0E-10 Ry
     smearing contrib. (-TS)   =       0.03835303 Ry
     internal energy E=F+TS    =   -3427.36798257 Ry

     The total energy is F=E-TS. E is the sum of the following terms:
     one-electron contribution =  -25669.33780383 Ry
     hartree contribution      =   12794.57628571 Ry
     xc contribution           =    -441.70291831 Ry
     ewald contribution        =    9960.18288410 Ry
     one-center paw contrib.   =    -266.71586731 Ry
      -> PAW hartree energy AE =      48.47036835 Ry
      -> PAW hartree energy PS =     -48.26309347 Ry
      -> PAW xc energy AE      =     -32.77136923 Ry
      -> PAW xc energy PS      =      13.47594301 Ry
      -> total E_H with PAW    =   12794.78356059 Ry
      -> total E_XC with PAW   =    -460.99834453 Ry
     electrostatic embedding   =      -0.01166087 Ry
     cavitation energy         =       0.02138700 Ry
     PV energy                 =      -0.07980107 Ry
     correction to one-el term =     195.69951199 Ry

     WARNING: you are using the parabolic pbc correction;
              the potential shift above must be added to 
              band and Fermi energies.

     convergence has been achieved in  38 iterations

     negative rho (up, down):  1.778E-04 0.000E+00
     The dielectric solvent contribution to forces
     atom    1 type  1   force =    -0.00000001   -0.00000002    0.06300718
     atom    2 type  1   force =     0.00000001   -0.00000002    0.06299944
     atom    3 type  1   force =    -0.00000001    0.00000002    0.01795380
     atom    4 type  1   force =     0.00000001    0.00000002    0.01795364
     atom    5 type  2   force =     0.00000029    0.00000002   -0.02060944
     atom    6 type  2   force =    -0.00000029    0.00000002   -0.02060945
     atom    7 type  1   force =     0.00000016   -0.00568421   -0.00179657
     atom    8 type  1   force =    -0.00000016   -0.00568421   -0.00179657
     atom    9 type  2   force =    -0.00000000   -0.00000002    0.02332407
     atom   10 type  2   force =     0.00000000   -0.00000002    0.02332112
     atom   11 type  1   force =     0.00000016    0.00568421   -0.00179655
     atom   12 type  1   force =    -0.00000016    0.00568421   -0.00179656
     atom   13 type  1   force =    -0.00000000    0.00000000   -0.00113728
     atom   14 type  1   force =     0.00000000    0.00000000   -0.00113735
     atom   15 type  1   force =    -0.00000000   -0.00000000    0.00039970
     atom   16 type  1   force =     0.00000000   -0.00000000    0.00039939
     atom   17 type  2   force =    -0.00000000    0.00000000   -0.00060643
     atom   18 type  2   force =     0.00000000    0.00000000   -0.00060643
     atom   19 type  1   force =     0.00000002   -0.00029364   -0.00022746
     atom   20 type  1   force =    -0.00000002   -0.00029364   -0.00022746
     atom   21 type  2   force =     0.00000005   -0.00000000   -0.00060688
     atom   22 type  2   force =    -0.00000005   -0.00000000   -0.00060688
     atom   23 type  1   force =     0.00000002    0.00029364   -0.00022746
     atom   24 type  1   force =    -0.00000002    0.00029364   -0.00022746
     atom   25 type  1   force =     0.00000000   -0.00000000   -0.00085503
     atom   26 type  1   force =    -0.00000000   -0.00000000   -0.00085472
     atom   27 type  1   force =     0.00000000    0.00000000    0.00068290
     atom   28 type  1   force =    -0.00000000    0.00000000    0.00068297
     atom   29 type  2   force =     0.00000029    0.00000002    0.01940740
     atom   30 type  2   force =    -0.00000029    0.00000002    0.01940740
     atom   31 type  1   force =     0.00000016   -0.00568675    0.00134112
     atom   32 type  1   force =    -0.00000016   -0.00568675    0.00134112
     atom   33 type  2   force =     0.00000000   -0.00000002   -0.02454635
     atom   34 type  2   force =    -0.00000000   -0.00000002   -0.02454341
     atom   35 type  1   force =     0.00000016    0.00568674    0.00134111
     atom   36 type  1   force =    -0.00000016    0.00568674    0.00134111
     atom   37 type  1   force =     0.00000000    0.00000002   -0.01840889
     atom   38 type  1   force =    -0.00000000    0.00000002   -0.01840873
     atom   39 type  1   force =     0.00000001   -0.00000003   -0.06348080
     atom   40 type  1   force =    -0.00000001   -0.00000003   -0.06347306
 

     Forces acting on atoms (cartesian axes, Ry/au):

     atom    1 type  1   force =     0.00000000    0.00000000    0.12399456
     atom    2 type  1   force =     0.00000000    0.00000000    0.12399513
     atom    3 type  1   force =     0.00000000    0.00000000    0.05370289
     atom    4 type  1   force =     0.00000000    0.00000000    0.05370169
     atom    5 type  2   force =    -0.00000115    0.00000000   -0.02408550
     atom    6 type  2   force =     0.00000115    0.00000000   -0.02408550
     atom    7 type  1   force =     0.00000224    0.05506898   -0.00535455
     atom    8 type  1   force =    -0.00000224    0.05506898   -0.00535455
     atom    9 type  2   force =     0.00000000    0.00000000   -0.07275112
     atom   10 type  2   force =     0.00000000    0.00000000   -0.07275136
     atom   11 type  1   force =     0.00000224   -0.05506898   -0.00535455
     atom   12 type  1   force =    -0.00000224   -0.05506898   -0.00535455
     atom   13 type  1   force =     0.00000000    0.00000000   -0.00065551
     atom   14 type  1   force =     0.00000000    0.00000000   -0.00065564
     atom   15 type  1   force =     0.00000000    0.00000000    0.00616039
     atom   16 type  1   force =     0.00000000    0.00000000    0.00618506
     atom   17 type  2   force =     0.00000000    0.00000000    0.00000000
     atom   18 type  2   force =     0.00000000    0.00000000    0.00000000
     atom   19 type  1   force =     0.00001453   -0.06915986    0.00000000
     atom   20 type  1   force =    -0.00001453   -0.06915986    0.00000000
     atom   21 type  2   force =     0.00002954    0.00000000    0.00000000
     atom   22 type  2   force =    -0.00002954    0.00000000    0.00000000
     atom   23 type  1   force =     0.00001453    0.06915986    0.00000000
     atom   24 type  1   force =    -0.00001453    0.06915986    0.00000000
     atom   25 type  1   force =     0.00000000    0.00000000   -0.00616039
     atom   26 type  1   force =     0.00000000    0.00000000   -0.00618506
     atom   27 type  1   force =     0.00000000    0.00000000    0.00065551
     atom   28 type  1   force =     0.00000000    0.00000000    0.00065564
     atom   29 type  2   force =    -0.00000115    0.00000000    0.02408550
     atom   30 type  2   force =     0.00000115    0.00000000    0.02408550
     atom   31 type  1   force =     0.00000224    0.05506898    0.00535455
     atom   32 type  1   force =    -0.00000224    0.05506898    0.00535455
     atom   33 type  2   force =     0.00000000    0.00000000    0.07275112
     atom   34 type  2   force =     0.00000000    0.00000000    0.07275136
     atom   35 type  1   force =     0.00000224   -0.05506898    0.00535455
     atom   36 type  1   force =    -0.00000224   -0.05506898    0.00535455
     atom   37 type  1   force =     0.00000000    0.00000000   -0.05370289
     atom   38 type  1   force =     0.00000000    0.00000000   -0.05370169
     atom   39 type  1   force =     0.00000000    0.00000000   -0.12399456
     atom   40 type  1   force =     0.00000000    0.00000000   -0.12399513
     The non-local contrib.  to forces
     atom    1 type  1   force =     0.00000000    0.00000000    1.38104729
     atom    2 type  1   force =     0.00000000    0.00000000    1.38108736
     atom    3 type  1   force =     0.00000000    0.00000000    1.16929632
     atom    4 type  1   force =     0.00000000    0.00000000    1.16930201
     atom    5 type  2   force =    -0.00000066    0.00000000   -0.06725871
     atom    6 type  2   force =     0.00000066    0.00000000   -0.06725871
     atom    7 type  1   force =     0.00000935   -0.05132354   -0.20796738
     atom    8 type  1   force =    -0.00000935   -0.05132354   -0.20796738
     atom    9 type  2   force =     0.00000000    0.00000000   -0.07570063
     atom   10 type  2   force =     0.00000000    0.00000000   -0.07566110
     atom   11 type  1   force =     0.00000935    0.05132354   -0.20796738
     atom   12 type  1   force =    -0.00000935    0.05132354   -0.20796738
     atom   13 type  1   force =     0.00000000    0.00000000    0.04911926
     atom   14 type  1   force =     0.00000000    0.00000000    0.04910595
     atom   15 type  1   force =     0.00000000    0.00000000    0.25493148
     atom   16 type  1   force =     0.00000000    0.00000000    0.25477468
     atom   17 type  2   force =     0.00000000    0.00000000    0.00000000
     atom   18 type  2   force =     0.00000000    0.00000000    0.00000000
     atom   19 type  1   force =    -0.00011045    0.05691022    0.00000000
     atom   20 type  1   force =     0.00011045    0.05691022    0.00000000
     atom   21 type  2   force =     0.00007228   -0.00000000    0.00000000
     atom   22 type  2   force =    -0.00007228    0.00000000    0.00000000
     atom   23 type  1   force =    -0.00011045   -0.05691022    0.00000000
     atom   24 type  1   force =     0.00011045   -0.05691022    0.00000000
     atom   25 type  1   force =     0.00000000    0.00000000   -0.25493148
     atom   26 type  1   force =     0.00000000    0.00000000   -0.25477468
     atom   27 type  1   force =     0.00000000    0.00000000   -0.04911926
     atom   28 type  1   force =     0.00000000    0.00000000   -0.04910595
     atom   29 type  2   force =    -0.00000066    0.00000000    0.06725871
     atom   30 type  2   force =     0.00000066    0.00000000    0.06725871
     atom   31 type  1   force =     0.00000935   -0.05132354    0.20796738
     atom   32 type  1   force =    -0.00000935   -0.05132354    0.20796738
     atom   33 type  2   force =     0.00000000    0.00000000    0.07570063
     atom   34 type  2   force =     0.00000000    0.00000000    0.07566110
     atom   35 type  1   force =     0.00000935    0.05132354    0.20796738
     atom   36 type  1   force =    -0.00000935    0.05132354    0.20796738
     atom   37 type  1   force =     0.00000000    0.00000000   -1.16929632
     atom   38 type  1   force =     0.00000000    0.00000000   -1.16930201
     atom   39 type  1   force =     0.00000000    0.00000000   -1.38104729
     atom   40 type  1   force =     0.00000000    0.00000000   -1.38108736
     The ionic contribution  to forces
     atom    1 type  1   force =     0.00000000    0.00000011  -99.85490748
     atom    2 type  1   force =     0.00000000    0.00000011  -99.85489364
     atom    3 type  1   force =     0.00000000   -0.00000025  -94.20092921
     atom    4 type  1   force =    -0.00000000   -0.00000025  -94.20093290
     atom    5 type  2   force =     0.00031416   -0.00000196 -174.10304976
     atom    6 type  2   force =    -0.00031416   -0.00000196 -174.10304976
     atom    7 type  1   force =     0.00025790    0.66315827  -60.93886155
     atom    8 type  1   force =    -0.00025790    0.66315827  -60.93886155
     atom    9 type  2   force =    -0.00000000    0.00000220 -174.92399127
     atom   10 type  2   force =    -0.00000000    0.00000220 -174.91792753
     atom   11 type  1   force =     0.00025790   -0.66315779  -60.93885946
     atom   12 type  1   force =    -0.00025790   -0.66315779  -60.93885946
     atom   13 type  1   force =     0.00000000   -0.00000171  -37.78538307
     atom   14 type  1   force =    -0.00000000   -0.00000171  -37.78503039
     atom   15 type  1   force =    -0.00000000    0.00000879  -27.93344975
     atom   16 type  1   force =     0.00000000    0.00000879  -27.93033781
     atom   17 type  2   force =    -0.00000000    0.00001240   -0.00024335
     atom   18 type  2   force =     0.00000000    0.00001240   -0.00024334
     atom   19 type  1   force =     0.00119538   -0.83043147    0.00000549
     atom   20 type  1   force =    -0.00119538   -0.83043147    0.00000549
     atom   21 type  2   force =     0.00118352    0.00012225   -0.00000139
     atom   22 type  2   force =    -0.00118352    0.00012225   -0.00000139
     atom   23 type  1   force =     0.00119538    0.83028149    0.00000549
     atom   24 type  1   force =    -0.00119538    0.83028149    0.00000549
     atom   25 type  1   force =    -0.00000000    0.00000879   27.93353391
     atom   26 type  1   force =     0.00000000    0.00000879   27.93042172
     atom   27 type  1   force =     0.00000000   -0.00000171   37.78554181
     atom   28 type  1   force =     0.00000000   -0.00000171   37.78518913
     atom   29 type  2   force =     0.00031416   -0.00000196  174.10308009
     atom   30 type  2   force =    -0.00031416   -0.00000196  174.10308009
     atom   31 type  1   force =     0.00025790    0.66316140   60.93887820
     atom   32 type  1   force =    -0.00025790    0.66316140   60.93887820
     atom   33 type  2   force =     0.00000000    0.00000220  174.92347833
     atom   34 type  2   force =    -0.00000000    0.00000220  174.91741468
     atom   35 type  1   force =     0.00025790   -0.66316092   60.93887610
     atom   36 type  1   force =    -0.00025790   -0.66316092   60.93887610
     atom   37 type  1   force =     0.00000000   -0.00000025   94.20085285
     atom   38 type  1   force =     0.00000000   -0.00000025   94.20085654
     atom   39 type  1   force =    -0.00000000    0.00000011   99.85542408
     atom   40 type  1   force =    -0.00000000    0.00000011   99.85541023
     The local contribution  to forces
     atom    1 type  1   force =    -0.00000000    0.00000000   98.54730542
     atom    2 type  1   force =     0.00000000    0.00000000   98.54725765
     atom    3 type  1   force =    -0.00000000    0.00000000   93.07849618
     atom    4 type  1   force =     0.00000000    0.00000000   93.07849048
     atom    5 type  2   force =    -0.00031464   -0.00000000  174.15993544
     atom    6 type  2   force =     0.00031464    0.00000000  174.15993544
     atom    7 type  1   force =    -0.00026732   -0.55046955   61.13842040
     atom    8 type  1   force =     0.00026732   -0.55046955   61.13842040
     atom    9 type  2   force =    -0.00000000    0.00000000  174.89675987
     atom   10 type  2   force =     0.00000000    0.00000000  174.89065274
     atom   11 type  1   force =    -0.00026732    0.55046955   61.13842040
     atom   12 type  1   force =     0.00026732    0.55046955   61.13842040
     atom   13 type  1   force =    -0.00000000   -0.00000000   37.73612623
     atom   14 type  1   force =     0.00000000    0.00000000   37.73577382
     atom   15 type  1   force =    -0.00000000   -0.00000000   27.68598886
     atom   16 type  1   force =     0.00000000    0.00000000   27.68305463
     atom   17 type  2   force =    -0.00000000    0.00000000   -0.00602980
     atom   18 type  2   force =    -0.00000000    0.00000000   -0.00602975
     atom   19 type  1   force =    -0.00108364    0.70364706   -0.00253740
     atom   20 type  1   force =     0.00108364    0.70364706   -0.00253740
     atom   21 type  2   force =    -0.00123773   -0.00000000   -0.00623818
     atom   22 type  2   force =     0.00123773   -0.00000000   -0.00623818
     atom   23 type  1   force =    -0.00108364   -0.70398605   -0.00253740
     atom   24 type  1   force =     0.00108364   -0.70398605   -0.00253740
     atom   25 type  1   force =    -0.00000000    0.00000000  -27.68784101
     atom   26 type  1   force =     0.00000000    0.00000000  -27.68490699
     atom   27 type  1   force =    -0.00000000   -0.00000000  -37.73791149
     atom   28 type  1   force =    -0.00000000    0.00000000  -37.73755907
     atom   29 type  2   force =    -0.00031463   -0.00000000 -174.17250676
     atom   30 type  2   force =     0.00031463    0.00000000 -174.17250676
     atom   31 type  1   force =    -0.00026731   -0.55044338  -61.14345217
     atom   32 type  1   force =     0.00026731   -0.55044338  -61.14345217
     atom   33 type  2   force =    -0.00000000    0.00000000 -174.90871480
     atom   34 type  2   force =     0.00000000    0.00000000 -174.90260795
     atom   35 type  1   force =    -0.00026731    0.55044338  -61.14345217
     atom   36 type  1   force =     0.00026731    0.55044338  -61.14345217
     atom   37 type  1   force =    -0.00000000    0.00000000  -93.08048123
     atom   38 type  1   force =     0.00000000   -0.00000000  -93.08047554
     atom   39 type  1   force =    -0.00000000    0.00000000  -98.54873331
     atom   40 type  1   force =     0.00000000    0.00000000  -98.54868558
     The core correction contribution to forces
     atom    1 type  1   force =    -0.00000000    0.00000000   -0.01315713
     atom    2 type  1   force =    -0.00000000   -0.00000000   -0.01315786
     atom    3 type  1   force =     0.00000000    0.00000000   -0.01238441
     atom    4 type  1   force =    -0.00000000   -0.00000000   -0.01238448
     atom    5 type  2   force =     0.00000000    0.00000000    0.00000000
     atom    6 type  2   force =     0.00000000    0.00000000    0.00000000
     atom    7 type  1   force =    -0.00000005   -0.00062333    0.00210634
     atom    8 type  1   force =     0.00000005   -0.00062333    0.00210634
     atom    9 type  2   force =     0.00000000    0.00000000    0.00000000
     atom   10 type  2   force =     0.00000000    0.00000000    0.00000000
     atom   11 type  1   force =    -0.00000005    0.00062333    0.00210634
     atom   12 type  1   force =     0.00000005    0.00062333    0.00210634
     atom   13 type  1   force =    -0.00000000    0.00000000   -0.00042056
     atom   14 type  1   force =    -0.00000000    0.00000000   -0.00042040
     atom   15 type  1   force =    -0.00000000   -0.00000000   -0.00282343
     atom   16 type  1   force =    -0.00000000    0.00000000   -0.00282066
     atom   17 type  2   force =     0.00000000    0.00000000    0.00000000
     atom   18 type  2   force =     0.00000000    0.00000000    0.00000000
     atom   19 type  1   force =     0.00000103    0.00076856   -0.00000220
     atom   20 type  1   force =    -0.00000103    0.00076856   -0.00000220
     atom   21 type  2   force =     0.00000000    0.00000000    0.00000000
     atom   22 type  2   force =     0.00000000    0.00000000    0.00000000
     atom   23 type  1   force =     0.00000103   -0.00076903   -0.00000220
     atom   24 type  1   force =    -0.00000103   -0.00076903   -0.00000220
     atom   25 type  1   force =     0.00000000   -0.00000000    0.00282099
     atom   26 type  1   force =    -0.00000000    0.00000000    0.00281823
     atom   27 type  1   force =     0.00000000   -0.00000000    0.00041799
     atom   28 type  1   force =     0.00000000   -0.00000000    0.00041784
     atom   29 type  2   force =     0.00000000    0.00000000    0.00000000
     atom   30 type  2   force =     0.00000000    0.00000000    0.00000000
     atom   31 type  1   force =    -0.00000005   -0.00062362   -0.00210976
     atom   32 type  1   force =     0.00000005   -0.00062362   -0.00210976
     atom   33 type  2   force =     0.00000000    0.00000000    0.00000000
     atom   34 type  2   force =     0.00000000    0.00000000    0.00000000
     atom   35 type  1   force =    -0.00000005    0.00062362   -0.00210976
     atom   36 type  1   force =     0.00000005    0.00062362   -0.00210976
     atom   37 type  1   force =     0.00000000   -0.00000000    0.01238171
     atom   38 type  1   force =    -0.00000000   -0.00000000    0.01238176
     atom   39 type  1   force =     0.00000000   -0.00000000    0.01315507
     atom   40 type  1   force =     0.00000000    0.00000000    0.01315579
     The Hubbard contrib.    to forces
     atom    1 type  1   force =     0.00000000    0.00000000    0.00000000
     atom    2 type  1   force =     0.00000000    0.00000000    0.00000000
     atom    3 type  1   force =     0.00000000    0.00000000    0.00000000
     atom    4 type  1   force =     0.00000000    0.00000000    0.00000000
[...]
     atom   37 type  1   force =     0.00000000   -0.00000033   97.01350158
     atom   38 type  1   force =     0.00000000   -0.00000033   97.01350018
     atom   39 type  1   force =     0.00000000    0.00000017  104.91473553
     atom   40 type  1   force =     0.00000000    0.00000017  104.91470318
     The local contribution  to forces
     atom    1 type  1   force =    -0.00000000    0.00000000  103.46987791
     atom    2 type  1   force =     0.00000000    0.00000000  103.46985439
     atom    3 type  1   force =     0.00000000    0.00000000   95.92592213
     atom    4 type  1   force =     0.00000000    0.00000000   95.92591960
     atom    5 type  2   force =    -0.00005351   -0.00000000  182.93989480
     atom    6 type  2   force =     0.00005351    0.00000000  182.93989480
     atom    7 type  1   force =    -0.00002607    0.72172434   63.09958480
     atom    8 type  1   force =     0.00002607    0.72172434   63.09958480
     atom    9 type  2   force =    -0.00000000    0.00000000  178.13149565
     atom   10 type  2   force =     0.00000000    0.00000000  178.13120290
     atom   11 type  1   force =    -0.00002607   -0.72172434   63.09958480
     atom   12 type  1   force =     0.00002607   -0.72172434   63.09958480
     atom   13 type  1   force =     0.00000000    0.00000000   40.08526289
     atom   14 type  1   force =     0.00000000   -0.00000000   40.08528453
     atom   15 type  1   force =    -0.00000000   -0.00000000   27.18474077
     atom   16 type  1   force =     0.00000000    0.00000000   27.18451890
     atom   17 type  2   force =    -0.00000000   -0.00000000   -0.00605784
     atom   18 type  2   force =    -0.00000000   -0.00000000   -0.00605784
     atom   19 type  1   force =     0.00000476   -0.37155266   -0.00254814
     atom   20 type  1   force =    -0.00000476   -0.37155266   -0.00254814
     atom   21 type  2   force =    -0.00035573   -0.00000000   -0.00624436
     atom   22 type  2   force =     0.00035573   -0.00000000   -0.00624436
     atom   23 type  1   force =     0.00000476    0.37120748   -0.00254814
     atom   24 type  1   force =    -0.00000476    0.37120748   -0.00254814
     atom   25 type  1   force =     0.00000000    0.00000000  -27.18659482
     atom   26 type  1   force =    -0.00000000   -0.00000000  -27.18637294
     atom   27 type  1   force =    -0.00000000    0.00000000  -40.08706941
     atom   28 type  1   force =     0.00000000   -0.00000000  -40.08709105
     atom   29 type  2   force =    -0.00005351   -0.00000000 -182.95252681
     atom   30 type  2   force =     0.00005351    0.00000000 -182.95252681
     atom   31 type  1   force =    -0.00002608    0.72171287  -63.10462882
     atom   32 type  1   force =     0.00002608    0.72171287  -63.10462882
     atom   33 type  2   force =    -0.00000000   -0.00000000 -178.14336548
     atom   34 type  2   force =     0.00000000    0.00000000 -178.14307270
     atom   35 type  1   force =    -0.00002608   -0.72171287  -63.10462882
     atom   36 type  1   force =     0.00002608   -0.72171287  -63.10462882
     atom   37 type  1   force =     0.00000000    0.00000000  -95.92793808
     atom   38 type  1   force =     0.00000000    0.00000000  -95.92793554
     atom   39 type  1   force =    -0.00000000    0.00000000 -103.47128123
     atom   40 type  1   force =     0.00000000   -0.00000000 -103.47125771
     The core correction contribution to forces
     atom    1 type  1   force =    -0.00000000   -0.00000000   -0.01167333
     atom    2 type  1   force =     0.00000000   -0.00000000   -0.01167318
     atom    3 type  1   force =     0.00000000    0.00000000   -0.01098386
     atom    4 type  1   force =    -0.00000000    0.00000000   -0.01098388
     atom    5 type  2   force =     0.00000000    0.00000000    0.00000000
     atom    6 type  2   force =     0.00000000    0.00000000    0.00000000
     atom    7 type  1   force =     0.00000000    0.00014161    0.00249676
     atom    8 type  1   force =    -0.00000000    0.00014161    0.00249676
     atom    9 type  2   force =     0.00000000    0.00000000    0.00000000
     atom   10 type  2   force =     0.00000000    0.00000000    0.00000000
     atom   11 type  1   force =     0.00000000   -0.00014161    0.00249676
     atom   12 type  1   force =    -0.00000000   -0.00014161    0.00249676
     atom   13 type  1   force =     0.00000000    0.00000000   -0.00052187
     atom   14 type  1   force =     0.00000000   -0.00000000   -0.00052188
     atom   15 type  1   force =    -0.00000000    0.00000000   -0.00223076
     atom   16 type  1   force =    -0.00000000   -0.00000000   -0.00223059
     atom   17 type  2   force =     0.00000000    0.00000000    0.00000000
     atom   18 type  2   force =     0.00000000    0.00000000    0.00000000
     atom   19 type  1   force =     0.00000002   -0.00022151   -0.00000216
     atom   20 type  1   force =    -0.00000002   -0.00022151   -0.00000216
     atom   21 type  2   force =     0.00000000    0.00000000    0.00000000
     atom   22 type  2   force =     0.00000000    0.00000000    0.00000000
     atom   23 type  1   force =     0.00000002    0.00022102   -0.00000216
     atom   24 type  1   force =    -0.00000002    0.00022102   -0.00000216
     atom   25 type  1   force =    -0.00000000    0.00000000    0.00222868
     atom   26 type  1   force =    -0.00000000    0.00000000    0.00222851
     atom   27 type  1   force =    -0.00000000   -0.00000000    0.00051943
     atom   28 type  1   force =     0.00000000   -0.00000000    0.00051944
     atom   29 type  2   force =     0.00000000    0.00000000    0.00000000
     atom   30 type  2   force =     0.00000000    0.00000000    0.00000000
     atom   31 type  1   force =     0.00000000    0.00014131   -0.00249963
     atom   32 type  1   force =    -0.00000000    0.00014131   -0.00249963
     atom   33 type  2   force =     0.00000000    0.00000000    0.00000000
     atom   34 type  2   force =     0.00000000    0.00000000    0.00000000
     atom   35 type  1   force =     0.00000000   -0.00014131   -0.00249963
     atom   36 type  1   force =    -0.00000000   -0.00014131   -0.00249963
     atom   37 type  1   force =    -0.00000000   -0.00000000    0.01098142
     atom   38 type  1   force =    -0.00000000    0.00000000    0.01098144
     atom   39 type  1   force =     0.00000000   -0.00000000    0.01167172
     atom   40 type  1   force =     0.00000000   -0.00000000    0.01167156
     The Hubbard contrib.    to forces
     atom    1 type  1   force =     0.00000000    0.00000000    0.00000000
     atom    2 type  1   force =     0.00000000    0.00000000    0.00000000
     atom    3 type  1   force =     0.00000000    0.00000000    0.00000000
     atom    4 type  1   force =     0.00000000    0.00000000    0.00000000
     atom    5 type  2   force =     0.00000000    0.00000000    0.00000000
     atom    6 type  2   force =     0.00000000    0.00000000    0.00000000
     atom    7 type  1   force =     0.00000000    0.00000000    0.00000000
     atom    8 type  1   force =     0.00000000    0.00000000    0.00000000
     atom    9 type  2   force =     0.00000000    0.00000000    0.00000000
     atom   10 type  2   force =     0.00000000    0.00000000    0.00000000
     atom   11 type  1   force =     0.00000000    0.00000000    0.00000000
     atom   12 type  1   force =     0.00000000    0.00000000    0.00000000
     atom   13 type  1   force =     0.00000000    0.00000000    0.00000000
     atom   14 type  1   force =     0.00000000    0.00000000    0.00000000
     atom   15 type  1   force =     0.00000000    0.00000000    0.00000000
     atom   16 type  1   force =     0.00000000    0.00000000    0.00000000
     atom   17 type  2   force =     0.00000000    0.00000000    0.00000000
     atom   18 type  2   force =     0.00000000    0.00000000    0.00000000
     atom   19 type  1   force =     0.00000000    0.00000000    0.00000000
     atom   20 type  1   force =     0.00000000    0.00000000    0.00000000
     atom   21 type  2   force =     0.00000000    0.00000000    0.00000000
     atom   22 type  2   force =     0.00000000    0.00000000    0.00000000
     atom   23 type  1   force =     0.00000000    0.00000000    0.00000000
     atom   24 type  1   force =     0.00000000    0.00000000    0.00000000
     atom   25 type  1   force =     0.00000000    0.00000000    0.00000000
     atom   26 type  1   force =     0.00000000    0.00000000    0.00000000
     atom   27 type  1   force =     0.00000000    0.00000000    0.00000000
     atom   28 type  1   force =     0.00000000    0.00000000    0.00000000
     atom   29 type  2   force =     0.00000000    0.00000000    0.00000000
     atom   30 type  2   force =     0.00000000    0.00000000    0.00000000
     atom   31 type  1   force =     0.00000000    0.00000000    0.00000000
     atom   32 type  1   force =     0.00000000    0.00000000    0.00000000
     atom   33 type  2   force =     0.00000000    0.00000000    0.00000000
     atom   34 type  2   force =     0.00000000    0.00000000    0.00000000
     atom   35 type  1   force =     0.00000000    0.00000000    0.00000000
     atom   36 type  1   force =     0.00000000    0.00000000    0.00000000
     atom   37 type  1   force =     0.00000000    0.00000000    0.00000000
     atom   38 type  1   force =     0.00000000    0.00000000    0.00000000
     atom   39 type  1   force =     0.00000000    0.00000000    0.00000000
     atom   40 type  1   force =     0.00000000    0.00000000    0.00000000
     The SCF correction term to forces
     atom    1 type  1   force =     0.00000000   -0.00000000   -0.00000120
     atom    2 type  1   force =     0.00000000   -0.00000000   -0.00000122
     atom    3 type  1   force =    -0.00000000    0.00000000   -0.00000177
     atom    4 type  1   force =     0.00000000    0.00000000   -0.00000177
     atom    5 type  2   force =     0.00000003    0.00000000   -0.00000452
     atom    6 type  2   force =    -0.00000003    0.00000000   -0.00000452
     atom    7 type  1   force =     0.00000000   -0.00000122   -0.00000072
     atom    8 type  1   force =    -0.00000000   -0.00000122   -0.00000072
     atom    9 type  2   force =    -0.00000000   -0.00000000   -0.00000112
     atom   10 type  2   force =    -0.00000000   -0.00000000   -0.00000106
     atom   11 type  1   force =     0.00000000    0.00000122   -0.00000072
     atom   12 type  1   force =    -0.00000000    0.00000122   -0.00000072
     atom   13 type  1   force =     0.00000000    0.00000000   -0.00000115
     atom   14 type  1   force =     0.00000000    0.00000000   -0.00000108
     atom   15 type  1   force =    -0.00000000   -0.00000000   -0.00000026
     atom   16 type  1   force =     0.00000000   -0.00000000   -0.00000023
     atom   17 type  2   force =    -0.00000000    0.00000000   -0.00000002
     atom   18 type  2   force =     0.00000000    0.00000000   -0.00000002
     atom   19 type  1   force =     0.00000008   -0.00000034   -0.00000000
     atom   20 type  1   force =    -0.00000008   -0.00000034   -0.00000000
     atom   21 type  2   force =     0.00000009   -0.00000000   -0.00000001
     atom   22 type  2   force =    -0.00000009   -0.00000000   -0.00000001
     atom   23 type  1   force =     0.00000008    0.00000034   -0.00000000
     atom   24 type  1   force =    -0.00000008    0.00000034   -0.00000000
     atom   25 type  1   force =    -0.00000000   -0.00000000    0.00000027
     atom   26 type  1   force =     0.00000000   -0.00000000    0.00000024
     atom   27 type  1   force =    -0.00000000    0.00000000    0.00000115
     atom   28 type  1   force =     0.00000000    0.00000000    0.00000108
     atom   29 type  2   force =     0.00000003    0.00000000    0.00000456
     atom   30 type  2   force =    -0.00000003    0.00000000    0.00000456
     atom   31 type  1   force =     0.00000000   -0.00000120    0.00000073
     atom   32 type  1   force =    -0.00000000   -0.00000120    0.00000073
     atom   33 type  2   force =    -0.00000000   -0.00000000    0.00000114
     atom   34 type  2   force =     0.00000000   -0.00000000    0.00000108
     atom   35 type  1   force =     0.00000000    0.00000120    0.00000073
     atom   36 type  1   force =    -0.00000000    0.00000120    0.00000073
     atom   37 type  1   force =    -0.00000000    0.00000000    0.00000178
     atom   38 type  1   force =     0.00000000   -0.00000000    0.00000178
     atom   39 type  1   force =    -0.00000000   -0.00000000    0.00000118
     atom   40 type  1   force =     0.00000000    0.00000000    0.00000120

     Total force =     0.000148     Total SCF correction =     0.000011
     Energy error            =      2.5E-07 Ry
     Gradient error          =      4.5E-05 Ry/Bohr

     bfgs converged in  21 scf cycles and  20 bfgs steps
     (criteria: energy <  1.0E-04 Ry, force <  1.0E-04 Ry/Bohr)

     End of BFGS Geometry Optimization

     Final energy             =   -3427.4631557697 Ry

     File /storage/home/mgm6007/ixd4/Maria/Strain1_Files/RuO2-110-0-/RuO2-110-0-.bfgs deleted, as requested
Begin final coordinates

ATOMIC_POSITIONS (crystal)
O             0.0000000000        0.5000000000        0.2814495777
O             0.5000000000        0.5000000000        0.2814499959
O             0.0000000000        0.0000000000        0.3114003881
O             0.5000000000        0.0000000000        0.3114003577
Ru            0.2499999550        0.0000000000        0.3573541359
Ru            0.7500000450       -0.0000000000        0.3573541359
O             0.2499994961        0.3137437457        0.3644477899
O             0.7500005039        0.3137437457        0.3644477899
Ru            0.0000000000        0.5000000000        0.3567874775
Ru            0.5000000000        0.5000000000        0.3567879288
O             0.2499994961        0.6862562543        0.3644477899
O             0.7500005039        0.6862562543        0.3644477899
O             0.0000000000        0.0000000000        0.4138668218
O             0.5000000000        0.0000000000        0.4138667144
O             0.0000000000        0.5000000000        0.4469802223
O             0.5000000000        0.5000000000        0.4469793777
Ru            0.0000000000        0.0000000000        0.5000010000
Ru            0.5000000000        0.0000000000        0.5000010000
O             0.2500003881        0.1862291938        0.5000010000
O             0.7499996119        0.1862291938        0.5000010000
Ru            0.2499997237        0.5000000000        0.5000010000
Ru            0.7500002763        0.5000000000        0.5000010000
O             0.2500003881        0.8137718062        0.5000010000
O             0.7499996119        0.8137718062        0.5000010000
O             0.0000000000        0.5000000000        0.5530207777
O             0.5000000000        0.5000000000        0.5530216223
O             0.0000000000        0.0000000000        0.5861341782
O             0.5000000000        0.0000000000        0.5861342856
Ru            0.2499999550       -0.0000000000        0.6426478641
Ru            0.7500000450        0.0000000000        0.6426478641
O             0.2499994961        0.3137437457        0.6355542101
O             0.7500005039        0.3137437457        0.6355542101
Ru            0.0000000000        0.5000000000        0.6432145225
Ru            0.5000000000        0.5000000000        0.6432140712
O             0.2499994961        0.6862562543        0.6355542101
O             0.7500005039        0.6862562543        0.6355542101
O             0.0000000000        0.0000000000        0.6886006119
O             0.5000000000        0.0000000000        0.6886006423
O             0.0000000000        0.5000000000        0.7185514223
O             0.5000000000        0.5000000000        0.7185510041
End final coordinates



     Writing all to output data dir /storage/home/mgm6007/ixd4/Maria/Strain1_Files/RuO2-110-0-/RuO2-110-0-.save/
 
     init_run     :    123.18s CPU    661.73s WALL (       1 calls)
     electrons    :  30356.11s CPU  81327.97s WALL (      21 calls)
     update_pot   :     26.80s CPU     26.84s WALL (      20 calls)
     forces       :     28.43s CPU     29.40s WALL (      21 calls)

     Called by init_run:
     wfcinit      :      0.48s CPU      0.49s WALL (       1 calls)
     wfcinit:atom :      0.00s CPU      0.00s WALL (       1 calls)
     wfcinit:wfcr :      0.45s CPU      0.45s WALL (       1 calls)
     potinit      :     85.95s CPU    469.82s WALL (       1 calls)
     hinit0       :     36.25s CPU    190.85s WALL (       1 calls)

     Called by electrons:
     c_bands      :    441.61s CPU    444.37s WALL (     344 calls)
     sum_band     :     94.28s CPU     94.55s WALL (     344 calls)
     v_of_rho     :     46.48s CPU     46.69s WALL (     361 calls)
     v_h          :      2.67s CPU      2.68s WALL (     361 calls)
     v_xc         :     45.90s CPU     46.12s WALL (     382 calls)
     newd         :     34.53s CPU     35.63s WALL (     361 calls)
     PAW_pot      :     30.97s CPU     30.99s WALL (     381 calls)
     mix_rho      :    264.34s CPU    264.82s WALL (     344 calls)

     Called by c_bands:
     init_us_2    :      4.57s CPU      4.82s WALL (     709 calls)
     init_us_2:cp :      4.56s CPU      4.82s WALL (     709 calls)
     cegterg      :    425.09s CPU    427.48s WALL (     344 calls)

     Called by sum_band:
     sum_band:wei :      0.14s CPU      0.16s WALL (     344 calls)
     sum_band:loo :     59.67s CPU     59.80s WALL (     344 calls)
     sum_band:buf :      0.00s CPU      0.00s WALL (     344 calls)
     sum_band:ini :      1.98s CPU      1.99s WALL (     344 calls)
     sum_band:cal :     15.22s CPU     15.26s WALL (     364 calls)
     sum_band:bec :      0.13s CPU      0.13s WALL (     364 calls)
     addusdens    :     22.36s CPU     22.42s WALL (     344 calls)
                                        0.00s GPU  (     344 calls)
     addusd:skk   :      3.78s CPU      3.79s WALL (     344 calls)
                                        0.00s GPU  (     344 calls)

     Called by *egterg:
     cdiaghg      :     54.76s CPU     55.09s WALL (    1176 calls)
     cegterg:over :     36.66s CPU     36.81s WALL (     856 calls)
     cegterg:upda :     23.21s CPU     23.29s WALL (     856 calls)
     cegterg:last :     40.11s CPU     40.28s WALL (     557 calls)
     cdiaghg:chol :      3.14s CPU      3.16s WALL (    1176 calls)
     cdiaghg:inve :      1.19s CPU      1.19s WALL (    1176 calls)
     cdiaghg:para :     11.97s CPU     12.11s WALL (    2352 calls)
     h_psi        :    219.25s CPU    220.66s WALL (    1201 calls)
     s_psi        :     31.97s CPU     32.05s WALL (    1201 calls)
     g_psi        :      1.03s CPU      1.04s WALL (     856 calls)

     Called by h_psi:
     h_psi:calbec :     33.14s CPU     33.28s WALL (    1201 calls)
     vloc_psi     :    151.87s CPU    152.88s WALL (    1201 calls)
     add_vuspsi   :     32.07s CPU     32.25s WALL (    1201 calls)

     General routines
     calbec       :     52.00s CPU     52.21s WALL (    1649 calls)
     fft          :   6000.88s CPU   6001.93s WALL (    4906 calls)
     ffts         :     95.11s CPU     95.24s WALL (  147184 calls)
     fftw         :    135.98s CPU    136.73s WALL (  398696 calls)
     interpolate  :   5969.93s CPU   5970.95s WALL (     361 calls)
 
     Parallel routines

     PAW routines
     PAW_pot      :     30.97s CPU     30.99s WALL (     381 calls)
     PAW_symme    :      0.12s CPU      0.12s WALL (     725 calls)
 
     Environ routines
 
     PWSCF        :      8h55m CPU   1d 0h 6m WALL

 
   This run was terminated on:  16:20:33  14Jul2023            

=------------------------------------------------------------------------------=
   JOB DONE.
=------------------------------------------------------------------------------=
