
     Program PWSCF v.7.2 starts on 26Jul2023 at 11:22:56 
        Git branch: heads/qe-7.2
        Last git commit: b4c5e8deeb7d1863e7553a87b45f8d22c21926a5
        Last git commit date: Mon Mar 27 16:12:09 2023 +0000
        Last git commit subject: Merge branch 'merge_fix_hubbard' into 'develop'

     This program is part of the open-source Quantum ESPRESSO suite
     for quantum simulation of materials; please cite
         "P. Giannozzi et al., J. Phys.:Condens. Matter 21 395502 (2009);
         "P. Giannozzi et al., J. Phys.:Condens. Matter 29 465901 (2017);
         "P. Giannozzi et al., J. Chem. Phys. 152 154105 (2020);
          URL http://www.quantum-espresso.org", 
     in publications or presentations arising from this work. More details at
     http://www.quantum-espresso.org/quote

     Parallel version (MPI), running on    20 processors

     MPI processes distributed on     1 nodes
     104986 MiB available memory on the printing compute node when the environment starts
 
     Reading input from RuO2-110-0-25.in

     Current dimensions of program PWSCF are:
     Max number of different atomic species (ntypx) = 10
     Max number of k-points (npk) =  40000
     Max angular momentum in pseudopotentials (lmaxx) =  4
 
     Reading input from environ.in:
     * Environ restarting
     * setting up water environment
     * using electronic solvent mode
     * setting boundary derivatives method to SCCS default
     
     file O.pbe-n-kjpaw_psl.0.1.UPF: wavefunction(s)  2P renormalized
     Message from routine setup:
     using ibrav=0 with symmetry is DISCOURAGED, use correct ibrav instead
 
     R & G space division:  proc/nbgrp/npool/nimage =      20
     Subspace diagonalization in iterative solution of the eigenvalue problem:
     one sub-group per band group will be used
     scalapack distributed-memory algorithm (size of sub-group:  2*  2 procs)

 
     Parallelization info
     --------------------
     sticks:   dense  smooth     PW     G-vecs:    dense   smooth      PW
     Min         276     110     29                54982    13912    1877
     Max         277     111     30                54993    13923    1888
     Sum        5537    2217    585              1099789   278381   37601
 
     Using Slab Decomposition
 


     bravais-lattice index     =            0
     lattice parameter (alat)  =      12.3824  a.u.
     unit-cell volume          =    5825.9133 (a.u.)^3
     number of atoms/cell      =           44
     number of atomic types    =            3
     number of electrons       =       364.00
     number of Kohn-Sham states=          218
     kinetic-energy cutoff     =      50.0000  Ry
     charge density cutoff     =     500.0000  Ry
     scf convergence threshold =      1.0E-09
     mixing beta               =       0.7000
     number of iterations used =            8  local-TF  mixing
     energy convergence thresh.=      1.0E-04
     force convergence thresh. =      1.0E-04
     Exchange-correlation= PBE
                           (   1   4   3   4   0   0   0)
     nstep                     =          200


     ================================================================================
 
                                  Environ Setup Summary

     ================================================================================
 
     Please cite

          O. Andreussi, I. Dabo and N. Marzari, J. Chem. Phys. 136, 064102 (2012)

     in publications or presentations arising from this work.

     ================================================================================
 
     Parameters
     ==========

     compensation onset threshold      =               0.1000E+00
     static permittivity               =                    78.30
     surface tension in input (dyn/cm) =                    47.90
     surface tension in internal units =               0.6153E-04
     external pressure in input (GPa)  =                    -0.36
     external pressure in inter. units =              -0.2447E-04

     Solvent Boundary
     ================

     solvent mode                      =               electronic
     derivatives method                =                    chain
     numerical core for derivatives    =                      fft
     switching function adopted        =                     SCCS
     density limit for vacuum region   =               0.5000E-02
     density limit for bulk solvent    =               0.1000E-03

     Electrostatic Setup
     ===================

     electrostatic problem to solve    =              generalized
     numerical solver adopted          =                       cg
     type of auxiliary density adopted =                     none
     numerical core for poisson        =                      fft
     type of pbc corrections           =                parabolic
     numerical core for corrections    =                      1da

     ================================================================================
 

     celldm(1)=  12.382447  celldm(2)=   0.000000  celldm(3)=   0.000000
     celldm(4)=   0.000000  celldm(5)=   0.000000  celldm(6)=   0.000000

     crystal axes: (cart. coord. in units of alat)
               a(1) = (   1.000000   0.000000   0.000000 )  
               a(2) = (   0.000000   0.908473   0.000000 )  
               a(3) = (   0.000000   0.000000   3.377790 )  

     reciprocal axes: (cart. coord. in units 2 pi/alat)
               b(1) = (  1.000000  0.000000  0.000000 )  
               b(2) = (  0.000000  1.100748  0.000000 )  
               b(3) = (  0.000000  0.000000  0.296052 )  


     PseudoPot. # 1 for O  read from file:
     /gpfs/group/ixd4/default/Simon/pseudopotentials/materialscloud/SSSP_1.3.0_PBE_efficiency/O.pbe-n-kjpaw_psl.0.1.UPF
     MD5 check sum: 0234752ac141de4415c5fc33072bef88
     Pseudo is Projector augmented-wave + core cor, Zval =  6.0
     Generated using "atomic" code by A. Dal Corso  v.5.0.99 svn rev. 10869
     Shape of augmentation charge: BESSEL
     Using radial grid of 1095 points,  4 beta functions with: 
                l(1) =   0
                l(2) =   0
                l(3) =   1
                l(4) =   1
     Q(r) pseudized with 0 coefficients 


     PseudoPot. # 2 for Ru read from file:
     /gpfs/group/ixd4/default/Simon/pseudopotentials/materialscloud/SSSP_1.3.0_PBE_efficiency/Ru_ONCV_PBE-1.0.oncvpsp.upf
     MD5 check sum: be037bb81c227cfb9b1461a9f099f4bd
     Pseudo is Norm-conserving, Zval = 16.0
     Generated using ONCVPSP code by D. R. Hamann
     Using radial grid of 1458 points,  6 beta functions with: 
                l(1) =   0
                l(2) =   0
                l(3) =   1
                l(4) =   1
                l(5) =   2
                l(6) =   2

     PseudoPot. # 3 for H  read from file:
     /gpfs/group/ixd4/default/Simon/pseudopotentials/materialscloud/SSSP_1.3.0_PBE_efficiency/H.pbe-rrkjus_psl.1.0.0.UPF
     MD5 check sum: f52b6d4d1c606e5624b1dc7b2218f220
     Pseudo is Ultrasoft, Zval =  1.0
     Generated using "atomic" code by A. Dal Corso  v.5.1
     Using radial grid of  929 points,  2 beta functions with: 
                l(1) =   0
                l(2) =   0
     Q(r) pseudized with 0 coefficients 


     atomic species   valence    mass     pseudopotential
        O              6.00    15.99940     O ( 1.00)
        Ru            16.00   101.07000     Ru( 1.00)
        H              1.00     1.00794     H ( 1.00)

      8 Sym. Ops., with inversion, found ( 4 have fractional translation)



   Cartesian axes

     site n.     atom                  positions (alat units)
         1           O   tau(   1) = (   0.0000000   0.4542364   0.8809581  )
         2           O   tau(   2) = (   0.5000000   0.4542364   0.8809581  )
         3           O   tau(   3) = (   0.0000000   0.0000000   0.9936311  )
         4           O   tau(   4) = (   0.5000000   0.0000000   0.9936311  )
         5           Ru  tau(   5) = (   0.2500000   0.0000000   1.1878270  )
         6           Ru  tau(   6) = (   0.7500000   0.0000000   1.1878270  )
         7           O   tau(   7) = (   0.2500000   0.2781880   1.1878270  )
         8           O   tau(   8) = (   0.7500000   0.2781880   1.1878270  )
         9           Ru  tau(   9) = (   0.0000000   0.4542364   1.1878270  )
        10           Ru  tau(  10) = (   0.5000000   0.4542364   1.1878270  )
        11           O   tau(  11) = (   0.2500000   0.6302848   1.1878270  )
        12           O   tau(  12) = (   0.7500000   0.6302848   1.1878270  )
        13           O   tau(  13) = (   0.0000000   0.0000000   1.3820263  )
        14           O   tau(  14) = (   0.5000000   0.0000000   1.3820263  )
        15           O   tau(  15) = (   0.0000000   0.4542364   1.4946992  )
        16           O   tau(  16) = (   0.5000000   0.4542364   1.4946992  )
        17           Ru  tau(  17) = (   0.0000000   0.0000000   1.6888985  )
        18           Ru  tau(  18) = (   0.5000000   0.0000000   1.6888985  )
        19           O   tau(  19) = (   0.2500000   0.1760484   1.6888985  )
        20           O   tau(  20) = (   0.7500000   0.1760484   1.6888985  )
        21           Ru  tau(  21) = (   0.2500000   0.4542364   1.6888985  )
        22           Ru  tau(  22) = (   0.7500000   0.4542364   1.6888985  )
        23           O   tau(  23) = (   0.2500000   0.7324253   1.6888985  )
        24           O   tau(  24) = (   0.7500000   0.7324253   1.6888985  )
        25           O   tau(  25) = (   0.0000000   0.4542364   1.8830945  )
        26           O   tau(  26) = (   0.5000000   0.4542364   1.8830945  )
        27           O   tau(  27) = (   0.0000000   0.0000000   1.9957674  )
        28           O   tau(  28) = (   0.5000000   0.0000000   1.9957674  )
        29           Ru  tau(  29) = (   0.2500000   0.0000000   2.1899667  )
        30           Ru  tau(  30) = (   0.7500000   0.0000000   2.1899667  )
        31           O   tau(  31) = (   0.2500000   0.2781880   2.1899667  )
        32           O   tau(  32) = (   0.7500000   0.2781880   2.1899667  )
        33           Ru  tau(  33) = (   0.0000000   0.4542364   2.1899667  )
        34           Ru  tau(  34) = (   0.5000000   0.4542364   2.1899667  )
        35           O   tau(  35) = (   0.2500000   0.6302848   2.1899667  )
        36           O   tau(  36) = (   0.7500000   0.6302848   2.1899667  )
        37           O   tau(  37) = (   0.0000000   0.0000000   2.3841660  )
        38           O   tau(  38) = (   0.5000000   0.0000000   2.3841660  )
        39           O   tau(  39) = (   0.0000000   0.4542364   2.4968356  )
        40           O   tau(  40) = (   0.5000000   0.4542364   2.4968356  )
        41           H   tau(  41) = (   0.0000000   0.1037621   0.8791679  )
        42           H   tau(  42) = (   0.0000000   0.1037621   2.4986224  )
        43           H   tau(  43) = (   0.5000000   0.8047107   0.8791679  )
        44           H   tau(  44) = (   0.5000000   0.8047107   2.4986224  )

     number of k points=     1  Marzari-Vanderbilt smearing, width (Ry)=  0.0300
                       cart. coord. in units 2pi/alat
        k(    1) = (   0.2500000   0.2751871   0.0000000), wk =   2.0000000

     Dense  grid:  1099789 G-vectors     FFT dimensions: (  90,  81, 300)

     Smooth grid:   278381 G-vectors     FFT dimensions: (  60,  54, 192)

     Estimated max dynamical RAM per process >     168.51 MB

     Estimated total dynamical RAM >       3.29 GB

     Check: negative core charge=   -0.000001

     Initial potential from superposition of free atoms

     starting charge     363.9933, renormalised to     364.0000

     add environment contribution to local potential
     Polarization accuracy = 4.0E-12, # of iterations =  22

     negative rho (up, down):  3.507E-05 0.000E+00
     Starting wfcs are  236 randomized atomic wfcs
     Checking if some PAW data can be deallocated... 

     total cpu time spent up to now is      837.6 secs

     per-process dynamical memory:   137.5 Mb

     Self-consistent Calculation

     iteration #  1     ecut=    50.00 Ry     beta= 0.70
     Davidson diagonalization with overlap
     ethr =  1.00E-02,  avg # of iterations =  2.0

     total cpu time spent up to now is     1125.8 secs

     total energy              =   -3429.24878535 Ry
     estimated scf accuracy    <      11.49955829 Ry
     electrostatic embedding   =      -0.00161785 Ry
     cavitation energy         =       0.01971511 Ry
     PV energy                 =      -0.08547721 Ry
     correction to one-el term =     218.23618196 Ry

     iteration #  2     ecut=    50.00 Ry     beta= 0.70
     Davidson diagonalization with overlap
     ethr =  3.16E-03,  avg # of iterations =  2.0

     negative rho (up, down):  8.712E-08 0.000E+00

     total cpu time spent up to now is     1417.2 secs

     total energy              =   -3430.85708288 Ry
     estimated scf accuracy    <      29.97903811 Ry
     electrostatic embedding   =      -0.00210813 Ry
     cavitation energy         =       0.02009319 Ry
     PV energy                 =      -0.08472207 Ry
     correction to one-el term =     218.23680422 Ry

     iteration #  3     ecut=    50.00 Ry     beta= 0.70
     Davidson diagonalization with overlap
     ethr =  3.16E-03,  avg # of iterations =  1.0

     total cpu time spent up to now is     1735.9 secs

     total energy              =   -3432.03432173 Ry
     estimated scf accuracy    <       6.34175077 Ry
     electrostatic embedding   =      -0.00258536 Ry
     cavitation energy         =       0.01971725 Ry
     PV energy                 =      -0.08594541 Ry
     correction to one-el term =     218.23894945 Ry

     iteration #  4     ecut=    50.00 Ry     beta= 0.70
     Davidson diagonalization with overlap
     ethr =  1.74E-03,  avg # of iterations =  1.0

     total cpu time spent up to now is     1975.8 secs

     total energy              =   -3432.18728706 Ry
     estimated scf accuracy    <       0.80798053 Ry
     electrostatic embedding   =      -0.00266693 Ry
     cavitation energy         =       0.01985266 Ry
     PV energy                 =      -0.08550174 Ry
     correction to one-el term =     218.23883829 Ry

     iteration #  5     ecut=    50.00 Ry     beta= 0.70
     Davidson diagonalization with overlap
     ethr =  2.22E-04,  avg # of iterations =  1.0

     add environment contribution to local potential
     Polarization accuracy = 2.8E-12, # of iterations =  34

     total cpu time spent up to now is     2217.2 secs

     total energy              =   -3432.22542178 Ry
     estimated scf accuracy    <       0.08736199 Ry
     electrostatic embedding   =      -0.00272478 Ry
     cavitation energy         =       0.01999938 Ry
     PV energy                 =      -0.08512941 Ry
     correction to one-el term =     218.23874717 Ry

     iteration #  6     ecut=    50.00 Ry     beta= 0.70
     Davidson diagonalization with overlap
     ethr =  2.40E-05,  avg # of iterations =  3.0

     total cpu time spent up to now is     2490.0 secs

     total energy              =   -3432.27200573 Ry
     estimated scf accuracy    <       0.53185435 Ry
     electrostatic embedding   =      -0.03076417 Ry
     cavitation energy         =       0.02043443 Ry
     PV energy                 =      -0.08419784 Ry
     correction to one-el term =     199.87098853 Ry

     iteration #  7     ecut=    50.00 Ry     beta= 0.70
     Davidson diagonalization with overlap
     ethr =  2.40E-05,  avg # of iterations =  1.0

     total cpu time spent up to now is     2795.8 secs

     total energy              =   -3432.25929190 Ry
     estimated scf accuracy    <       0.20927701 Ry
     electrostatic embedding   =      -0.03143849 Ry
     cavitation energy         =       0.02050715 Ry
     PV energy                 =      -0.08403535 Ry
     correction to one-el term =     199.87316691 Ry

     iteration #  8     ecut=    50.00 Ry     beta= 0.70
     Davidson diagonalization with overlap
     ethr =  2.40E-05,  avg # of iterations =  1.0

     add environment contribution to local potential
     Polarization accuracy = 2.3E-12, # of iterations =  38

     total cpu time spent up to now is     3077.9 secs

     total energy              =   -3432.25775931 Ry
     estimated scf accuracy    <       0.02376654 Ry
     electrostatic embedding   =      -0.03386995 Ry
     cavitation energy         =       0.02081665 Ry
     PV energy                 =      -0.08344447 Ry
     correction to one-el term =     199.88118391 Ry

     iteration #  9     ecut=    50.00 Ry     beta= 0.70
     Davidson diagonalization with overlap
     ethr =  6.53E-06,  avg # of iterations =  2.0

     add environment contribution to local potential
     Polarization accuracy = 8.7E-12, # of iterations =  41

     total cpu time spent up to now is     3347.1 secs

     total energy              =   -3432.26949596 Ry
     estimated scf accuracy    <       0.08081776 Ry
     electrostatic embedding   =      -0.05401827 Ry
     cavitation energy         =       0.02112036 Ry
     PV energy                 =      -0.08296474 Ry
     correction to one-el term =     193.95806980 Ry

     iteration # 10     ecut=    50.00 Ry     beta= 0.70
     Davidson diagonalization with overlap
     ethr =  6.53E-06,  avg # of iterations =  2.0

     add environment contribution to local potential
     Polarization accuracy = 8.1E-12, # of iterations =  41

     total cpu time spent up to now is     3618.2 secs

     total energy              =   -3432.27381141 Ry
     estimated scf accuracy    <       0.01247478 Ry
     electrostatic embedding   =      -0.06674385 Ry
     cavitation energy         =       0.02139163 Ry
     PV energy                 =      -0.08257198 Ry
     correction to one-el term =     192.00213663 Ry

     iteration # 11     ecut=    50.00 Ry     beta= 0.70
     Davidson diagonalization with overlap
     ethr =  3.43E-06,  avg # of iterations =  2.0

     add environment contribution to local potential
     Polarization accuracy = 4.7E-12, # of iterations =  42

     total cpu time spent up to now is     3895.7 secs

     total energy              =   -3432.27436722 Ry
     estimated scf accuracy    <       0.00919996 Ry
     electrostatic embedding   =      -0.06893833 Ry
     cavitation energy         =       0.02135622 Ry
     PV energy                 =      -0.08257441 Ry
     correction to one-el term =     192.02626095 Ry

     iteration # 12     ecut=    50.00 Ry     beta= 0.70
     Davidson diagonalization with overlap
     ethr =  2.53E-06,  avg # of iterations =  2.0

     negative rho (up, down):  2.159E-06 0.000E+00

     add environment contribution to local potential
     Polarization accuracy = 7.1E-12, # of iterations =  41

     total cpu time spent up to now is     4201.5 secs

     total energy              =   -3432.27516152 Ry
     estimated scf accuracy    <       0.02226204 Ry
     electrostatic embedding   =      -0.07567545 Ry
     cavitation energy         =       0.02136028 Ry
     PV energy                 =      -0.08251000 Ry
     correction to one-el term =     191.61870321 Ry

     iteration # 13     ecut=    50.00 Ry     beta= 0.70
     Davidson diagonalization with overlap
     ethr =  2.53E-06,  avg # of iterations =  2.0

     negative rho (up, down):  2.567E-07 0.000E+00

     add environment contribution to local potential
     Polarization accuracy = 5.5E-12, # of iterations =  41

     total cpu time spent up to now is     4446.1 secs

     total energy              =   -3432.27487505 Ry
     estimated scf accuracy    <       0.02235087 Ry
     electrostatic embedding   =      -0.07780864 Ry
     cavitation energy         =       0.02121597 Ry
     PV energy                 =      -0.08261897 Ry
     correction to one-el term =     192.09432934 Ry

     iteration # 14     ecut=    50.00 Ry     beta= 0.70
     Davidson diagonalization with overlap
     ethr =  2.53E-06,  avg # of iterations =  2.0

     negative rho (up, down):  5.833E-08 0.000E+00

     add environment contribution to local potential
     Polarization accuracy = 6.8E-12, # of iterations =  41

     total cpu time spent up to now is     4740.9 secs

     total energy              =   -3432.27500426 Ry
     estimated scf accuracy    <       0.00745568 Ry
     electrostatic embedding   =      -0.07625234 Ry
     cavitation energy         =       0.02117361 Ry
     PV energy                 =      -0.08265630 Ry
     correction to one-el term =     192.47239100 Ry

     iteration # 15     ecut=    50.00 Ry     beta= 0.70
     Davidson diagonalization with overlap
     ethr =  2.05E-06,  avg # of iterations =  1.0

     negative rho (up, down):  8.663E-04 0.000E+00

     add environment contribution to local potential
     Polarization accuracy = 4.6E-12, # of iterations =  41

     total cpu time spent up to now is     5033.4 secs

     total energy              =   -3432.27506202 Ry
     estimated scf accuracy    <       0.00192829 Ry
     electrostatic embedding   =      -0.07524263 Ry
     cavitation energy         =       0.02120516 Ry
     PV energy                 =      -0.08261465 Ry
     correction to one-el term =     192.51095255 Ry

     iteration # 16     ecut=    50.00 Ry     beta= 0.70
     Davidson diagonalization with overlap
     ethr =  5.30E-07,  avg # of iterations =  2.0

     negative rho (up, down):  2.329E-04 0.000E+00

     add environment contribution to local potential
     Polarization accuracy = 5.9E-12, # of iterations =  41

     total cpu time spent up to now is     5287.2 secs

     total energy              =   -3432.27521082 Ry
     estimated scf accuracy    <       0.00002515 Ry
     electrostatic embedding   =      -0.07297589 Ry
     cavitation energy         =       0.02115877 Ry
     PV energy                 =      -0.08263929 Ry
     correction to one-el term =     192.98692081 Ry

     iteration # 17     ecut=    50.00 Ry     beta= 0.70
     Davidson diagonalization with overlap
     ethr =  6.91E-09,  avg # of iterations =  3.0

     negative rho (up, down):  2.173E-05 0.000E+00

     add environment contribution to local potential
     Polarization accuracy = 5.9E-12, # of iterations =  41

     total cpu time spent up to now is     5582.9 secs

     total energy              =   -3432.27521897 Ry
     estimated scf accuracy    <       0.00000463 Ry
     electrostatic embedding   =      -0.07241636 Ry
     cavitation energy         =       0.02117286 Ry
     PV energy                 =      -0.08261103 Ry
     correction to one-el term =     193.02890368 Ry

     iteration # 18     ecut=    50.00 Ry     beta= 0.70
     Davidson diagonalization with overlap
     ethr =  1.27E-09,  avg # of iterations = 14.0

     negative rho (up, down):  4.919E-05 0.000E+00

     add environment contribution to local potential
     Polarization accuracy = 5.7E-12, # of iterations =  41

     total cpu time spent up to now is     5904.7 secs

     total energy              =   -3432.27522048 Ry
     estimated scf accuracy    <       0.00000500 Ry
     electrostatic embedding   =      -0.07194726 Ry
     cavitation energy         =       0.02117297 Ry
     PV energy                 =      -0.08260687 Ry
     correction to one-el term =     193.08415885 Ry

     iteration # 19     ecut=    50.00 Ry     beta= 0.70
     Davidson diagonalization with overlap
     ethr =  1.27E-09,  avg # of iterations =  3.0

     negative rho (up, down):  5.306E-05 0.000E+00

     add environment contribution to local potential
     Polarization accuracy = 5.7E-12, # of iterations =  41

     total cpu time spent up to now is     6205.6 secs

     total energy              =   -3432.27522137 Ry
     estimated scf accuracy    <       0.00000167 Ry
     electrostatic embedding   =      -0.07144819 Ry
     cavitation energy         =       0.02117002 Ry
     PV energy                 =      -0.08260366 Ry
     correction to one-el term =     193.16941348 Ry

     iteration # 20     ecut=    50.00 Ry     beta= 0.70
     Davidson diagonalization with overlap
     ethr =  4.60E-10,  avg # of iterations =  3.0

     negative rho (up, down):  1.052E-04 0.000E+00

     add environment contribution to local potential
     Polarization accuracy = 5.5E-12, # of iterations =  41

     total cpu time spent up to now is     6521.0 secs

     total energy              =   -3432.27522146 Ry
     estimated scf accuracy    <       0.00000042 Ry
     electrostatic embedding   =      -0.07122366 Ry
     cavitation energy         =       0.02116981 Ry
     PV energy                 =      -0.08260327 Ry
     correction to one-el term =     193.20518888 Ry

     iteration # 21     ecut=    50.00 Ry     beta= 0.70
     Davidson diagonalization with overlap
     ethr =  1.16E-10,  avg # of iterations =  3.0

     negative rho (up, down):  1.209E-04 0.000E+00

     add environment contribution to local potential
     Polarization accuracy = 5.2E-12, # of iterations =  41

     total cpu time spent up to now is     6820.0 secs

     total energy              =   -3432.27522151 Ry
     estimated scf accuracy    <       0.00000024 Ry
     electrostatic embedding   =      -0.07107384 Ry
     cavitation energy         =       0.02116805 Ry
     PV energy                 =      -0.08260425 Ry
     correction to one-el term =     193.23638282 Ry

     iteration # 22     ecut=    50.00 Ry     beta= 0.70
     Davidson diagonalization with overlap
     ethr =  6.70E-11,  avg # of iterations =  2.0

     negative rho (up, down):  1.491E-04 0.000E+00

     add environment contribution to local potential
     Polarization accuracy = 5.1E-12, # of iterations =  42

     total cpu time spent up to now is     7137.4 secs

     total energy              =   -3432.27522150 Ry
     estimated scf accuracy    <       0.00000021 Ry
     electrostatic embedding   =      -0.07101517 Ry
     cavitation energy         =       0.02116761 Ry
     PV energy                 =      -0.08260522 Ry
     correction to one-el term =     193.24700431 Ry

     iteration # 23     ecut=    50.00 Ry     beta= 0.70
     Davidson diagonalization with overlap
     ethr =  5.85E-11,  avg # of iterations =  2.0

     negative rho (up, down):  1.555E-04 0.000E+00

     add environment contribution to local potential
     Polarization accuracy = 4.6E-12, # of iterations =  41

     total cpu time spent up to now is     7468.2 secs

     total energy              =   -3432.27522169 Ry
     estimated scf accuracy    <       0.00000019 Ry
     electrostatic embedding   =      -0.07098035 Ry
     cavitation energy         =       0.02116707 Ry
     PV energy                 =      -0.08260589 Ry
     correction to one-el term =     193.25483193 Ry

     iteration # 24     ecut=    50.00 Ry     beta= 0.70
     Davidson diagonalization with overlap
     ethr =  5.14E-11,  avg # of iterations =  2.0

     negative rho (up, down):  1.466E-04 0.000E+00

     add environment contribution to local potential
     Polarization accuracy = 4.4E-12, # of iterations =  41

     total cpu time spent up to now is     7772.7 secs

     total energy              =   -3432.27522215 Ry
     estimated scf accuracy    <       0.00000018 Ry
     electrostatic embedding   =      -0.07093852 Ry
     cavitation energy         =       0.02116684 Ry
     PV energy                 =      -0.08260658 Ry
     correction to one-el term =     193.26126733 Ry

     iteration # 25     ecut=    50.00 Ry     beta= 0.70
     Davidson diagonalization with overlap
     ethr =  4.91E-11,  avg # of iterations =  1.0

     negative rho (up, down):  1.363E-04 0.000E+00

     add environment contribution to local potential
     Polarization accuracy = 4.3E-12, # of iterations =  41

     total cpu time spent up to now is     8096.4 secs

     total energy              =   -3432.27522314 Ry
     estimated scf accuracy    <       0.00000016 Ry
     electrostatic embedding   =      -0.07094055 Ry
     cavitation energy         =       0.02116687 Ry
     PV energy                 =      -0.08260711 Ry
     correction to one-el term =     193.25990182 Ry

     iteration # 26     ecut=    50.00 Ry     beta= 0.70
     Davidson diagonalization with overlap
     ethr =  4.48E-11,  avg # of iterations =  1.0

     negative rho (up, down):  1.398E-04 0.000E+00

     add environment contribution to local potential
     Polarization accuracy = 5.2E-12, # of iterations =  40

     total cpu time spent up to now is     8411.2 secs

     total energy              =   -3432.27522523 Ry
     estimated scf accuracy    <       0.00000017 Ry
     electrostatic embedding   =      -0.07093462 Ry
     cavitation energy         =       0.02116699 Ry
     PV energy                 =      -0.08260725 Ry
     correction to one-el term =     193.25980671 Ry

     iteration # 27     ecut=    50.00 Ry     beta= 0.70
     Davidson diagonalization with overlap
     ethr =  4.48E-11,  avg # of iterations =  1.0

     negative rho (up, down):  1.300E-04 0.000E+00

     add environment contribution to local potential
     Polarization accuracy = 8.4E-12, # of iterations =  41

     total cpu time spent up to now is     8678.3 secs

     total energy              =   -3432.27522595 Ry
     estimated scf accuracy    <       0.00000016 Ry
     electrostatic embedding   =      -0.07092285 Ry
     cavitation energy         =       0.02116686 Ry
     PV energy                 =      -0.08260737 Ry
     correction to one-el term =     193.26193645 Ry

     iteration # 28     ecut=    50.00 Ry     beta= 0.70
     Davidson diagonalization with overlap
     ethr =  4.40E-11,  avg # of iterations =  2.0

     negative rho (up, down):  1.652E-04 0.000E+00

     add environment contribution to local potential
     Polarization accuracy = 9.7E-12, # of iterations =  41

     total cpu time spent up to now is     8963.8 secs

     total energy              =   -3432.27523615 Ry
     estimated scf accuracy    <       0.00000018 Ry
     electrostatic embedding   =      -0.07096756 Ry
     cavitation energy         =       0.02116703 Ry
     PV energy                 =      -0.08260731 Ry
     correction to one-el term =     193.25513295 Ry

     iteration # 29     ecut=    50.00 Ry     beta= 0.70
     Davidson diagonalization with overlap
     ethr =  4.40E-11,  avg # of iterations =  2.0

     negative rho (up, down):  1.434E-04 0.000E+00

     add environment contribution to local potential
     Polarization accuracy = 1.7E-12, # of iterations =  42

     total cpu time spent up to now is     9256.2 secs

     total energy              =   -3432.27524300 Ry
     estimated scf accuracy    <       0.00000018 Ry
     electrostatic embedding   =      -0.07093133 Ry
     cavitation energy         =       0.02116662 Ry
     PV energy                 =      -0.08260684 Ry
     correction to one-el term =     193.26368121 Ry

     iteration # 30     ecut=    50.00 Ry     beta= 0.70
     Davidson diagonalization with overlap
     ethr =  4.40E-11,  avg # of iterations =  3.0

     negative rho (up, down):  1.477E-04 0.000E+00

     add environment contribution to local potential
     Polarization accuracy = 1.9E-12, # of iterations =  42

     total cpu time spent up to now is     9541.5 secs

     total energy              =   -3432.27525460 Ry
     estimated scf accuracy    <       0.00000010 Ry
     electrostatic embedding   =      -0.07095630 Ry
     cavitation energy         =       0.02116690 Ry
     PV energy                 =      -0.08260695 Ry
     correction to one-el term =     193.25806990 Ry

     iteration # 31     ecut=    50.00 Ry     beta= 0.70
     Davidson diagonalization with overlap
     ethr =  2.76E-11,  avg # of iterations =  2.0

     negative rho (up, down):  1.448E-04 0.000E+00

     add environment contribution to local potential
     Polarization accuracy = 1.9E-12, # of iterations =  42

     total cpu time spent up to now is     9815.1 secs

     total energy              =   -3432.27525589 Ry
     estimated scf accuracy    <       0.00000010 Ry
     electrostatic embedding   =      -0.07096134 Ry
     cavitation energy         =       0.02116691 Ry
     PV energy                 =      -0.08260683 Ry
     correction to one-el term =     193.25752416 Ry

     iteration # 32     ecut=    50.00 Ry     beta= 0.70
     Davidson diagonalization with overlap
     ethr =  2.68E-11,  avg # of iterations =  1.0

     negative rho (up, down):  1.444E-04 0.000E+00

     add environment contribution to local potential
     Polarization accuracy = 1.7E-12, # of iterations =  42

     total cpu time spent up to now is    10131.4 secs

     total energy              =   -3432.27525624 Ry
     estimated scf accuracy    <       0.00000010 Ry
     electrostatic embedding   =      -0.07095829 Ry
     cavitation energy         =       0.02116696 Ry
     PV energy                 =      -0.08260684 Ry
     correction to one-el term =     193.25759702 Ry

     iteration # 33     ecut=    50.00 Ry     beta= 0.70
     Davidson diagonalization with overlap
     ethr =  2.62E-11,  avg # of iterations =  1.0

     negative rho (up, down):  1.438E-04 0.000E+00

     add environment contribution to local potential
     Polarization accuracy = 1.7E-12, # of iterations =  42

     total cpu time spent up to now is    10445.2 secs

     total energy              =   -3432.27525643 Ry
     estimated scf accuracy    <       0.00000009 Ry
     electrostatic embedding   =      -0.07095993 Ry
     cavitation energy         =       0.02116702 Ry
     PV energy                 =      -0.08260669 Ry
     correction to one-el term =     193.25715884 Ry

     iteration # 34     ecut=    50.00 Ry     beta= 0.70
     Davidson diagonalization with overlap
     ethr =  2.61E-11,  avg # of iterations =  1.0

     negative rho (up, down):  1.441E-04 0.000E+00

     add environment contribution to local potential
     Polarization accuracy = 1.7E-12, # of iterations =  42

     total cpu time spent up to now is    10761.0 secs

     total energy              =   -3432.27525648 Ry
     estimated scf accuracy    <       0.00000009 Ry
     electrostatic embedding   =      -0.07095790 Ry
     cavitation energy         =       0.02116704 Ry
     PV energy                 =      -0.08260667 Ry
     correction to one-el term =     193.25733851 Ry

     iteration # 35     ecut=    50.00 Ry     beta= 0.70
     Davidson diagonalization with overlap
     ethr =  2.61E-11,  avg # of iterations =  1.0

     negative rho (up, down):  1.443E-04 0.000E+00

     add environment contribution to local potential
     Polarization accuracy = 1.7E-12, # of iterations =  42

     total cpu time spent up to now is    11036.7 secs

     total energy              =   -3432.27525641 Ry
     estimated scf accuracy    <       0.00000009 Ry
     electrostatic embedding   =      -0.07095700 Ry
     cavitation energy         =       0.02116705 Ry
     PV energy                 =      -0.08260663 Ry
     correction to one-el term =     193.25750390 Ry

     iteration # 36     ecut=    50.00 Ry     beta= 0.70
     Davidson diagonalization with overlap
     ethr =  2.61E-11,  avg # of iterations =  1.0

     negative rho (up, down):  1.445E-04 0.000E+00

     add environment contribution to local potential
     Polarization accuracy = 1.7E-12, # of iterations =  42

     total cpu time spent up to now is    11350.9 secs

     total energy              =   -3432.27525639 Ry
     estimated scf accuracy    <       0.00000009 Ry
     electrostatic embedding   =      -0.07095695 Ry
     cavitation energy         =       0.02116704 Ry
     PV energy                 =      -0.08260663 Ry
     correction to one-el term =     193.25753648 Ry

     iteration # 37     ecut=    50.00 Ry     beta= 0.70
     Davidson diagonalization with overlap
     ethr =  2.61E-11,  avg # of iterations =  1.0

     negative rho (up, down):  1.444E-04 0.000E+00

     add environment contribution to local potential
     Polarization accuracy = 1.7E-12, # of iterations =  42

     total cpu time spent up to now is    11629.5 secs

     total energy              =   -3432.27525636 Ry
     estimated scf accuracy    <       0.00000009 Ry
     electrostatic embedding   =      -0.07095672 Ry
     cavitation energy         =       0.02116704 Ry
     PV energy                 =      -0.08260663 Ry
     correction to one-el term =     193.25758865 Ry

     iteration # 38     ecut=    50.00 Ry     beta= 0.70
     Davidson diagonalization with overlap
     ethr =  2.61E-11,  avg # of iterations =  1.0

     negative rho (up, down):  1.443E-04 0.000E+00

     add environment contribution to local potential
     Polarization accuracy = 1.7E-12, # of iterations =  42

     total cpu time spent up to now is    11894.5 secs

     total energy              =   -3432.27525644 Ry
     estimated scf accuracy    <       0.00000009 Ry
     electrostatic embedding   =      -0.07095664 Ry
     cavitation energy         =       0.02116705 Ry
     PV energy                 =      -0.08260664 Ry
     correction to one-el term =     193.25758037 Ry

     iteration # 39     ecut=    50.00 Ry     beta= 0.70
     Davidson diagonalization with overlap
     ethr =  2.61E-11,  avg # of iterations =  1.0

     negative rho (up, down):  1.443E-04 0.000E+00

     add environment contribution to local potential
     Polarization accuracy = 1.7E-12, # of iterations =  42

     total cpu time spent up to now is    12154.2 secs

     total energy              =   -3432.27525644 Ry
     estimated scf accuracy    <       0.00000009 Ry
     electrostatic embedding   =      -0.07095666 Ry
     cavitation energy         =       0.02116705 Ry
     PV energy                 =      -0.08260664 Ry
     correction to one-el term =     193.25756329 Ry

     iteration # 40     ecut=    50.00 Ry     beta= 0.70
     Davidson diagonalization with overlap
     ethr =  2.61E-11,  avg # of iterations =  1.0

     negative rho (up, down):  1.443E-04 0.000E+00

     add environment contribution to local potential
     Polarization accuracy = 1.7E-12, # of iterations =  42

     total cpu time spent up to now is    12411.1 secs

     total energy              =   -3432.27525643 Ry
     estimated scf accuracy    <       0.00000009 Ry
     electrostatic embedding   =      -0.07095679 Ry
     cavitation energy         =       0.02116704 Ry
     PV energy                 =      -0.08260664 Ry
     correction to one-el term =     193.25755530 Ry

     iteration # 41     ecut=    50.00 Ry     beta= 0.70
     Davidson diagonalization with overlap
     ethr =  2.61E-11,  avg # of iterations =  1.0

     negative rho (up, down):  1.443E-04 0.000E+00

     add environment contribution to local potential
     Polarization accuracy = 1.7E-12, # of iterations =  42

     total cpu time spent up to now is    12736.7 secs

     total energy              =   -3432.27525642 Ry
     estimated scf accuracy    <       0.00000009 Ry
     electrostatic embedding   =      -0.07095680 Ry
     cavitation energy         =       0.02116704 Ry
     PV energy                 =      -0.08260664 Ry
     correction to one-el term =     193.25755711 Ry

     iteration # 42     ecut=    50.00 Ry     beta= 0.70
     Davidson diagonalization with overlap
     ethr =  2.61E-11,  avg # of iterations =  1.0

     negative rho (up, down):  1.443E-04 0.000E+00

     add environment contribution to local potential
     Polarization accuracy = 1.7E-12, # of iterations =  42

     total cpu time spent up to now is    13037.6 secs

     total energy              =   -3432.27525640 Ry
     estimated scf accuracy    <       0.00000009 Ry
     electrostatic embedding   =      -0.07095696 Ry
     cavitation energy         =       0.02116704 Ry
     PV energy                 =      -0.08260664 Ry
     correction to one-el term =     193.25753426 Ry

     iteration # 43     ecut=    50.00 Ry     beta= 0.70
     Davidson diagonalization with overlap
     ethr =  2.61E-11,  avg # of iterations =  1.0

     negative rho (up, down):  1.442E-04 0.000E+00

     add environment contribution to local potential
     Polarization accuracy = 1.7E-12, # of iterations =  42

     total cpu time spent up to now is    13315.8 secs

     total energy              =   -3432.27525638 Ry
     estimated scf accuracy    <       0.00000009 Ry
     electrostatic embedding   =      -0.07095700 Ry
     cavitation energy         =       0.02116704 Ry
     PV energy                 =      -0.08260664 Ry
     correction to one-el term =     193.25752944 Ry

     iteration # 44     ecut=    50.00 Ry     beta= 0.70
     Davidson diagonalization with overlap
     ethr =  2.61E-11,  avg # of iterations =  1.0

     negative rho (up, down):  1.442E-04 0.000E+00

     add environment contribution to local potential
     Polarization accuracy = 1.7E-12, # of iterations =  42

     total cpu time spent up to now is    13608.5 secs

     total energy              =   -3432.27525636 Ry
     estimated scf accuracy    <       0.00000009 Ry
     electrostatic embedding   =      -0.07095706 Ry
     cavitation energy         =       0.02116704 Ry
     PV energy                 =      -0.08260664 Ry
     correction to one-el term =     193.25751792 Ry

     iteration # 45     ecut=    50.00 Ry     beta= 0.70
     Davidson diagonalization with overlap
     ethr =  2.61E-11,  avg # of iterations =  1.0

     negative rho (up, down):  1.442E-04 0.000E+00

     add environment contribution to local potential
     Polarization accuracy = 1.7E-12, # of iterations =  42

     total cpu time spent up to now is    13911.4 secs

     total energy              =   -3432.27525632 Ry
     estimated scf accuracy    <       0.00000009 Ry
     electrostatic embedding   =      -0.07095713 Ry
     cavitation energy         =       0.02116704 Ry
     PV energy                 =      -0.08260664 Ry
     correction to one-el term =     193.25750000 Ry

     iteration # 46     ecut=    50.00 Ry     beta= 0.70
     Davidson diagonalization with overlap
     ethr =  2.61E-11,  avg # of iterations =  1.0

     negative rho (up, down):  1.442E-04 0.000E+00

     add environment contribution to local potential
     Polarization accuracy = 1.7E-12, # of iterations =  42

     total cpu time spent up to now is    14228.5 secs

     total energy              =   -3432.27525630 Ry
     estimated scf accuracy    <       0.00000009 Ry
     electrostatic embedding   =      -0.07095712 Ry
     cavitation energy         =       0.02116704 Ry
     PV energy                 =      -0.08260664 Ry
     correction to one-el term =     193.25750396 Ry

     iteration # 47     ecut=    50.00 Ry     beta= 0.70
     Davidson diagonalization with overlap
     ethr =  2.61E-11,  avg # of iterations =  1.0

     negative rho (up, down):  1.442E-04 0.000E+00

     add environment contribution to local potential
     Polarization accuracy = 1.7E-12, # of iterations =  42

     total cpu time spent up to now is    14533.5 secs

     total energy              =   -3432.27525628 Ry
     estimated scf accuracy    <       0.00000009 Ry
     electrostatic embedding   =      -0.07095707 Ry
     cavitation energy         =       0.02116704 Ry
     PV energy                 =      -0.08260664 Ry
     correction to one-el term =     193.25751219 Ry

     iteration # 48     ecut=    50.00 Ry     beta= 0.70
     Davidson diagonalization with overlap
     ethr =  2.61E-11,  avg # of iterations =  1.0

     negative rho (up, down):  1.442E-04 0.000E+00

     add environment contribution to local potential
     Polarization accuracy = 1.7E-12, # of iterations =  42

     total cpu time spent up to now is    14802.3 secs

     total energy              =   -3432.27525627 Ry
     estimated scf accuracy    <       0.00000009 Ry
     electrostatic embedding   =      -0.07095704 Ry
     cavitation energy         =       0.02116704 Ry
     PV energy                 =      -0.08260664 Ry
     correction to one-el term =     193.25751585 Ry

     iteration # 49     ecut=    50.00 Ry     beta= 0.70
     Davidson diagonalization with overlap
     ethr =  2.61E-11,  avg # of iterations =  1.0

     negative rho (up, down):  1.442E-04 0.000E+00

     add environment contribution to local potential
     Polarization accuracy = 1.7E-12, # of iterations =  42

     total cpu time spent up to now is    15085.9 secs

     total energy              =   -3432.27525627 Ry
     estimated scf accuracy    <       0.00000009 Ry
     electrostatic embedding   =      -0.07095700 Ry
     cavitation energy         =       0.02116704 Ry
     PV energy                 =      -0.08260664 Ry
     correction to one-el term =     193.25752317 Ry

     iteration # 50     ecut=    50.00 Ry     beta= 0.70
     Davidson diagonalization with overlap
     ethr =  2.61E-11,  avg # of iterations =  1.0

     negative rho (up, down):  1.442E-04 0.000E+00

     add environment contribution to local potential
     Polarization accuracy = 1.7E-12, # of iterations =  42

     total cpu time spent up to now is    15334.8 secs

     total energy              =   -3432.27525627 Ry
     estimated scf accuracy    <       0.00000009 Ry
     electrostatic embedding   =      -0.07095699 Ry
     cavitation energy         =       0.02116704 Ry
     PV energy                 =      -0.08260664 Ry
     correction to one-el term =     193.25752536 Ry

     iteration # 51     ecut=    50.00 Ry     beta= 0.70
     Davidson diagonalization with overlap
     ethr =  2.61E-11,  avg # of iterations =  1.0

     negative rho (up, down):  1.442E-04 0.000E+00

     add environment contribution to local potential
     Polarization accuracy = 1.7E-12, # of iterations =  42

     total cpu time spent up to now is    15579.1 secs

     total energy              =   -3432.27525627 Ry
     estimated scf accuracy    <       0.00000009 Ry
     electrostatic embedding   =      -0.07095699 Ry
     cavitation energy         =       0.02116704 Ry
     PV energy                 =      -0.08260664 Ry
     correction to one-el term =     193.25752446 Ry

     iteration # 52     ecut=    50.00 Ry     beta= 0.70
     Davidson diagonalization with overlap
     ethr =  2.61E-11,  avg # of iterations =  1.0

     negative rho (up, down):  1.442E-04 0.000E+00

     add environment contribution to local potential
     Polarization accuracy = 1.7E-12, # of iterations =  42

     total cpu time spent up to now is    15806.4 secs

     total energy              =   -3432.27525627 Ry
     estimated scf accuracy    <       0.00000009 Ry
     electrostatic embedding   =      -0.07095699 Ry
     cavitation energy         =       0.02116704 Ry
     PV energy                 =      -0.08260664 Ry
     correction to one-el term =     193.25752429 Ry

     iteration # 53     ecut=    50.00 Ry     beta= 0.70
     Davidson diagonalization with overlap
     ethr =  2.61E-11,  avg # of iterations =  1.0

     negative rho (up, down):  1.442E-04 0.000E+00

     add environment contribution to local potential
     Polarization accuracy = 1.7E-12, # of iterations =  42

     total cpu time spent up to now is    16101.8 secs

     total energy              =   -3432.27525627 Ry
     estimated scf accuracy    <       0.00000009 Ry
     electrostatic embedding   =      -0.07095699 Ry
     cavitation energy         =       0.02116704 Ry
     PV energy                 =      -0.08260664 Ry
     correction to one-el term =     193.25752406 Ry

     iteration # 54     ecut=    50.00 Ry     beta= 0.70
     Davidson diagonalization with overlap
     ethr =  2.61E-11,  avg # of iterations =  1.0

     negative rho (up, down):  1.442E-04 0.000E+00

     add environment contribution to local potential
     Polarization accuracy = 1.7E-12, # of iterations =  42

     total cpu time spent up to now is    16407.9 secs

     total energy              =   -3432.27525627 Ry
     estimated scf accuracy    <       0.00000009 Ry
     electrostatic embedding   =      -0.07095699 Ry
     cavitation energy         =       0.02116704 Ry
     PV energy                 =      -0.08260664 Ry
     correction to one-el term =     193.25752357 Ry

     iteration # 55     ecut=    50.00 Ry     beta= 0.70
     Davidson diagonalization with overlap
     ethr =  2.61E-11,  avg # of iterations =  1.0

     negative rho (up, down):  1.442E-04 0.000E+00

     add environment contribution to local potential
     Polarization accuracy = 1.7E-12, # of iterations =  42

     total cpu time spent up to now is    16672.6 secs

     total energy              =   -3432.27525627 Ry
     estimated scf accuracy    <       0.00000009 Ry
     electrostatic embedding   =      -0.07095700 Ry
     cavitation energy         =       0.02116704 Ry
     PV energy                 =      -0.08260664 Ry
     correction to one-el term =     193.25752339 Ry

     iteration # 56     ecut=    50.00 Ry     beta= 0.70
     Davidson diagonalization with overlap
     ethr =  2.61E-11,  avg # of iterations =  1.0

     negative rho (up, down):  1.442E-04 0.000E+00

     add environment contribution to local potential
     Polarization accuracy = 1.7E-12, # of iterations =  42

     total cpu time spent up to now is    16932.5 secs

     total energy              =   -3432.27525627 Ry
     estimated scf accuracy    <       0.00000009 Ry
     electrostatic embedding   =      -0.07095699 Ry
     cavitation energy         =       0.02116704 Ry
     PV energy                 =      -0.08260664 Ry
     correction to one-el term =     193.25752366 Ry

     iteration # 57     ecut=    50.00 Ry     beta= 0.70
     Davidson diagonalization with overlap
     ethr =  2.61E-11,  avg # of iterations =  1.0

     negative rho (up, down):  1.442E-04 0.000E+00

     add environment contribution to local potential
     Polarization accuracy = 1.9E-12, # of iterations =  42

     total cpu time spent up to now is    17197.6 secs

     total energy              =   -3432.27525627 Ry
     estimated scf accuracy    <       0.00000009 Ry
     electrostatic embedding   =      -0.07095699 Ry
     cavitation energy         =       0.02116704 Ry
     PV energy                 =      -0.08260664 Ry
     correction to one-el term =     193.25752348 Ry

     iteration # 58     ecut=    50.00 Ry     beta= 0.70
     Davidson diagonalization with overlap
     ethr =  2.61E-11,  avg # of iterations =  1.0

     negative rho (up, down):  1.442E-04 0.000E+00

     add environment contribution to local potential
     Polarization accuracy = 1.7E-12, # of iterations =  42

     total cpu time spent up to now is    17465.1 secs

     total energy              =   -3432.27525627 Ry
     estimated scf accuracy    <       0.00000009 Ry
     electrostatic embedding   =      -0.07095699 Ry
     cavitation energy         =       0.02116704 Ry
     PV energy                 =      -0.08260664 Ry
     correction to one-el term =     193.25752359 Ry

     iteration # 59     ecut=    50.00 Ry     beta= 0.70
     Davidson diagonalization with overlap
     ethr =  2.61E-11,  avg # of iterations =  1.0

     negative rho (up, down):  1.442E-04 0.000E+00

     add environment contribution to local potential
     Polarization accuracy = 1.7E-12, # of iterations =  42

     total cpu time spent up to now is    17730.2 secs

     total energy              =   -3432.27525627 Ry
     estimated scf accuracy    <       0.00000009 Ry
     electrostatic embedding   =      -0.07095700 Ry
     cavitation energy         =       0.02116704 Ry
     PV energy                 =      -0.08260664 Ry
     correction to one-el term =     193.25752338 Ry

     iteration # 60     ecut=    50.00 Ry     beta= 0.70
     Davidson diagonalization with overlap
     ethr =  2.61E-11,  avg # of iterations =  1.0

     negative rho (up, down):  1.442E-04 0.000E+00

     add environment contribution to local potential
     Polarization accuracy = 1.7E-12, # of iterations =  42

     total cpu time spent up to now is    18036.8 secs

     total energy              =   -3432.27525627 Ry
     estimated scf accuracy    <       0.00000009 Ry
     electrostatic embedding   =      -0.07095699 Ry
     cavitation energy         =       0.02116704 Ry
     PV energy                 =      -0.08260664 Ry
     correction to one-el term =     193.25752350 Ry

     iteration # 61     ecut=    50.00 Ry     beta= 0.70
     Davidson diagonalization with overlap
     ethr =  2.61E-11,  avg # of iterations =  1.0

     negative rho (up, down):  1.442E-04 0.000E+00

     add environment contribution to local potential
     Polarization accuracy = 1.7E-12, # of iterations =  42

     total cpu time spent up to now is    18331.8 secs

     total energy              =   -3432.27525627 Ry
     estimated scf accuracy    <       0.00000009 Ry
     electrostatic embedding   =      -0.07095700 Ry
     cavitation energy         =       0.02116704 Ry
     PV energy                 =      -0.08260664 Ry
     correction to one-el term =     193.25752334 Ry

     iteration # 62     ecut=    50.00 Ry     beta= 0.70
     Davidson diagonalization with overlap
     ethr =  2.61E-11,  avg # of iterations =  1.0

     negative rho (up, down):  1.442E-04 0.000E+00

     add environment contribution to local potential
     Polarization accuracy = 1.7E-12, # of iterations =  42

     total cpu time spent up to now is    18625.6 secs

     total energy              =   -3432.27525627 Ry
     estimated scf accuracy    <       0.00000009 Ry
     electrostatic embedding   =      -0.07095699 Ry
     cavitation energy         =       0.02116704 Ry
     PV energy                 =      -0.08260664 Ry
     correction to one-el term =     193.25752359 Ry

     iteration # 63     ecut=    50.00 Ry     beta= 0.70
     Davidson diagonalization with overlap
     ethr =  2.61E-11,  avg # of iterations =  1.0

     negative rho (up, down):  1.442E-04 0.000E+00

     add environment contribution to local potential
     Polarization accuracy = 1.9E-12, # of iterations =  42

     total cpu time spent up to now is    18871.2 secs

     total energy              =   -3432.27525627 Ry
     estimated scf accuracy    <       0.00000009 Ry
     electrostatic embedding   =      -0.07095699 Ry
     cavitation energy         =       0.02116704 Ry
     PV energy                 =      -0.08260664 Ry
     correction to one-el term =     193.25752351 Ry

     iteration # 64     ecut=    50.00 Ry     beta= 0.70
     Davidson diagonalization with overlap
     ethr =  2.61E-11,  avg # of iterations =  1.0

     negative rho (up, down):  1.442E-04 0.000E+00

     add environment contribution to local potential
     Polarization accuracy = 1.7E-12, # of iterations =  42

     total cpu time spent up to now is    19197.6 secs

     total energy              =   -3432.27525627 Ry
     estimated scf accuracy    <       0.00000009 Ry
     electrostatic embedding   =      -0.07095700 Ry
     cavitation energy         =       0.02116704 Ry
     PV energy                 =      -0.08260664 Ry
     correction to one-el term =     193.25752334 Ry

     iteration # 65     ecut=    50.00 Ry     beta= 0.70
     Davidson diagonalization with overlap
     ethr =  2.61E-11,  avg # of iterations =  1.0

     negative rho (up, down):  1.442E-04 0.000E+00

     add environment contribution to local potential
     Polarization accuracy = 1.7E-12, # of iterations =  42

     total cpu time spent up to now is    19461.8 secs

     total energy              =   -3432.27525627 Ry
     estimated scf accuracy    <       0.00000009 Ry
     electrostatic embedding   =      -0.07095699 Ry
     cavitation energy         =       0.02116704 Ry
     PV energy                 =      -0.08260664 Ry
     correction to one-el term =     193.25752357 Ry

     iteration # 66     ecut=    50.00 Ry     beta= 0.70
     Davidson diagonalization with overlap
     ethr =  2.61E-11,  avg # of iterations =  1.0

     negative rho (up, down):  1.442E-04 0.000E+00

     add environment contribution to local potential
     Polarization accuracy = 1.7E-12, # of iterations =  42

     total cpu time spent up to now is    19757.8 secs

     total energy              =   -3432.27525627 Ry
     estimated scf accuracy    <       0.00000009 Ry
     electrostatic embedding   =      -0.07095700 Ry
     cavitation energy         =       0.02116704 Ry
     PV energy                 =      -0.08260664 Ry
     correction to one-el term =     193.25752344 Ry

     iteration # 67     ecut=    50.00 Ry     beta= 0.70
     Davidson diagonalization with overlap
     ethr =  2.61E-11,  avg # of iterations =  1.0

     negative rho (up, down):  1.442E-04 0.000E+00

     add environment contribution to local potential
     Polarization accuracy = 1.7E-12, # of iterations =  42

     total cpu time spent up to now is    20079.5 secs

     total energy              =   -3432.27525627 Ry
     estimated scf accuracy    <       0.00000009 Ry
     electrostatic embedding   =      -0.07095700 Ry
     cavitation energy         =       0.02116704 Ry
     PV energy                 =      -0.08260664 Ry
     correction to one-el term =     193.25752340 Ry

     iteration # 68     ecut=    50.00 Ry     beta= 0.70
     Davidson diagonalization with overlap
     ethr =  2.61E-11,  avg # of iterations =  1.0

     negative rho (up, down):  1.442E-04 0.000E+00

     add environment contribution to local potential
     Polarization accuracy = 1.8E-12, # of iterations =  42

     total cpu time spent up to now is    20350.4 secs

     total energy              =   -3432.27525627 Ry
     estimated scf accuracy    <       0.00000009 Ry
     electrostatic embedding   =      -0.07095699 Ry
     cavitation energy         =       0.02116704 Ry
     PV energy                 =      -0.08260664 Ry
     correction to one-el term =     193.25752450 Ry

     iteration # 69     ecut=    50.00 Ry     beta= 0.70
     Davidson diagonalization with overlap
     ethr =  2.61E-11,  avg # of iterations =  1.0

     negative rho (up, down):  1.442E-04 0.000E+00

     add environment contribution to local potential
     Polarization accuracy = 1.7E-12, # of iterations =  42

     total cpu time spent up to now is    20654.1 secs

     total energy              =   -3432.27525627 Ry
     estimated scf accuracy    <       0.00000009 Ry
     electrostatic embedding   =      -0.07095699 Ry
     cavitation energy         =       0.02116704 Ry
     PV energy                 =      -0.08260664 Ry
     correction to one-el term =     193.25752464 Ry

     iteration # 70     ecut=    50.00 Ry     beta= 0.70
     Davidson diagonalization with overlap
     ethr =  2.61E-11,  avg # of iterations =  1.0

     negative rho (up, down):  1.442E-04 0.000E+00

     add environment contribution to local potential
     Polarization accuracy = 1.7E-12, # of iterations =  42

     total cpu time spent up to now is    20956.3 secs

     total energy              =   -3432.27525627 Ry
     estimated scf accuracy    <       0.00000009 Ry
     electrostatic embedding   =      -0.07095699 Ry
     cavitation energy         =       0.02116704 Ry
     PV energy                 =      -0.08260664 Ry
     correction to one-el term =     193.25752470 Ry

     iteration # 71     ecut=    50.00 Ry     beta= 0.70
     Davidson diagonalization with overlap
     ethr =  2.61E-11,  avg # of iterations =  1.0

     negative rho (up, down):  1.442E-04 0.000E+00

     add environment contribution to local potential
     Polarization accuracy = 1.7E-12, # of iterations =  42

     total cpu time spent up to now is    21232.7 secs

     total energy              =   -3432.27525627 Ry
     estimated scf accuracy    <       0.00000009 Ry
     electrostatic embedding   =      -0.07095699 Ry
     cavitation energy         =       0.02116704 Ry
     PV energy                 =      -0.08260664 Ry
     correction to one-el term =     193.25752476 Ry

     iteration # 72     ecut=    50.00 Ry     beta= 0.70
     Davidson diagonalization with overlap
     ethr =  2.61E-11,  avg # of iterations =  1.0

     negative rho (up, down):  1.442E-04 0.000E+00

     add environment contribution to local potential
     Polarization accuracy = 9.7E-12, # of iterations =  41

     total cpu time spent up to now is    21480.0 secs

     total energy              =   -3432.27525627 Ry
     estimated scf accuracy    <       0.00000009 Ry
     electrostatic embedding   =      -0.07095699 Ry
     cavitation energy         =       0.02116704 Ry
     PV energy                 =      -0.08260664 Ry
     correction to one-el term =     193.25752473 Ry

     iteration # 73     ecut=    50.00 Ry     beta= 0.70
     Davidson diagonalization with overlap
     ethr =  2.61E-11,  avg # of iterations =  1.0

     negative rho (up, down):  1.442E-04 0.000E+00

     add environment contribution to local potential
     Polarization accuracy = 1.7E-12, # of iterations =  42

     total cpu time spent up to now is    21769.6 secs

     total energy              =   -3432.27525627 Ry
     estimated scf accuracy    <       0.00000009 Ry
     electrostatic embedding   =      -0.07095699 Ry
     cavitation energy         =       0.02116704 Ry
     PV energy                 =      -0.08260664 Ry
     correction to one-el term =     193.25752410 Ry

     iteration # 74     ecut=    50.00 Ry     beta= 0.70
     Davidson diagonalization with overlap
     ethr =  2.61E-11,  avg # of iterations =  1.0

     negative rho (up, down):  1.442E-04 0.000E+00

     add environment contribution to local potential
     Polarization accuracy = 1.7E-12, # of iterations =  42

     total cpu time spent up to now is    22025.1 secs

     total energy              =   -3432.27525627 Ry
     estimated scf accuracy    <       0.00000009 Ry
     electrostatic embedding   =      -0.07095699 Ry
     cavitation energy         =       0.02116704 Ry
     PV energy                 =      -0.08260664 Ry
     correction to one-el term =     193.25752481 Ry

     iteration # 75     ecut=    50.00 Ry     beta= 0.70
     Davidson diagonalization with overlap
     ethr =  2.61E-11,  avg # of iterations =  1.0

     negative rho (up, down):  1.442E-04 0.000E+00

     add environment contribution to local potential
     Polarization accuracy = 1.7E-12, # of iterations =  42

     total cpu time spent up to now is    22285.6 secs

     total energy              =   -3432.27525627 Ry
     estimated scf accuracy    <       0.00000009 Ry
     electrostatic embedding   =      -0.07095699 Ry
     cavitation energy         =       0.02116704 Ry
     PV energy                 =      -0.08260664 Ry
     correction to one-el term =     193.25752473 Ry

     iteration # 76     ecut=    50.00 Ry     beta= 0.70
     Davidson diagonalization with overlap
     ethr =  2.61E-11,  avg # of iterations =  1.0

     negative rho (up, down):  1.442E-04 0.000E+00

     add environment contribution to local potential
     Polarization accuracy = 1.7E-12, # of iterations =  42

     total cpu time spent up to now is    22513.9 secs

     total energy              =   -3432.27525627 Ry
     estimated scf accuracy    <       0.00000009 Ry
     electrostatic embedding   =      -0.07095699 Ry
     cavitation energy         =       0.02116704 Ry
     PV energy                 =      -0.08260664 Ry
     correction to one-el term =     193.25752441 Ry

     iteration # 77     ecut=    50.00 Ry     beta= 0.70
     Davidson diagonalization with overlap
     ethr =  2.61E-11,  avg # of iterations =  1.0

     negative rho (up, down):  1.442E-04 0.000E+00

     add environment contribution to local potential
     Polarization accuracy = 1.7E-12, # of iterations =  42

     total cpu time spent up to now is    22798.5 secs

     total energy              =   -3432.27525627 Ry
     estimated scf accuracy    <       0.00000009 Ry
     electrostatic embedding   =      -0.07095699 Ry
     cavitation energy         =       0.02116704 Ry
     PV energy                 =      -0.08260664 Ry
     correction to one-el term =     193.25752439 Ry

     iteration # 78     ecut=    50.00 Ry     beta= 0.70
     Davidson diagonalization with overlap
     ethr =  2.61E-11,  avg # of iterations =  1.0

     negative rho (up, down):  1.442E-04 0.000E+00

     add environment contribution to local potential
     Polarization accuracy = 1.7E-12, # of iterations =  42

     total cpu time spent up to now is    23080.2 secs

     total energy              =   -3432.27525627 Ry
     estimated scf accuracy    <       0.00000009 Ry
     electrostatic embedding   =      -0.07095699 Ry
     cavitation energy         =       0.02116704 Ry
     PV energy                 =      -0.08260664 Ry
     correction to one-el term =     193.25752430 Ry

     iteration # 79     ecut=    50.00 Ry     beta= 0.70
     Davidson diagonalization with overlap
     ethr =  2.61E-11,  avg # of iterations =  1.0

     negative rho (up, down):  1.442E-04 0.000E+00

     add environment contribution to local potential
     Polarization accuracy = 1.7E-12, # of iterations =  42

     total cpu time spent up to now is    23349.3 secs

     total energy              =   -3432.27525627 Ry
     estimated scf accuracy    <       0.00000009 Ry
     electrostatic embedding   =      -0.07095699 Ry
     cavitation energy         =       0.02116704 Ry
     PV energy                 =      -0.08260664 Ry
     correction to one-el term =     193.25752421 Ry

     iteration # 80     ecut=    50.00 Ry     beta= 0.70
     Davidson diagonalization with overlap
     ethr =  2.61E-11,  avg # of iterations =  1.0

     negative rho (up, down):  1.442E-04 0.000E+00

     add environment contribution to local potential
     Polarization accuracy = 3.4E-12, # of iterations =  42

     total cpu time spent up to now is    23672.5 secs

     total energy              =   -3432.27525627 Ry
     estimated scf accuracy    <       0.00000009 Ry
     electrostatic embedding   =      -0.07095699 Ry
     cavitation energy         =       0.02116704 Ry
     PV energy                 =      -0.08260664 Ry
     correction to one-el term =     193.25752407 Ry

     iteration # 81     ecut=    50.00 Ry     beta= 0.70
     Davidson diagonalization with overlap
     ethr =  2.61E-11,  avg # of iterations =  1.0

     negative rho (up, down):  1.442E-04 0.000E+00

     add environment contribution to local potential
     Polarization accuracy = 1.7E-12, # of iterations =  42

     total cpu time spent up to now is    23984.3 secs

     total energy              =   -3432.27525627 Ry
     estimated scf accuracy    <       0.00000009 Ry
     electrostatic embedding   =      -0.07095699 Ry
     cavitation energy         =       0.02116704 Ry
     PV energy                 =      -0.08260664 Ry
     correction to one-el term =     193.25752395 Ry

     iteration # 82     ecut=    50.00 Ry     beta= 0.70
     Davidson diagonalization with overlap
     ethr =  2.61E-11,  avg # of iterations =  1.0

     negative rho (up, down):  1.442E-04 0.000E+00

     add environment contribution to local potential
     Polarization accuracy = 1.7E-12, # of iterations =  42

     total cpu time spent up to now is    24282.5 secs

     total energy              =   -3432.27525627 Ry
     estimated scf accuracy    <       0.00000009 Ry
     electrostatic embedding   =      -0.07095699 Ry
     cavitation energy         =       0.02116704 Ry
     PV energy                 =      -0.08260664 Ry
     correction to one-el term =     193.25752372 Ry

     iteration # 83     ecut=    50.00 Ry     beta= 0.70
     Davidson diagonalization with overlap
     ethr =  2.61E-11,  avg # of iterations =  1.0

     negative rho (up, down):  1.442E-04 0.000E+00

     add environment contribution to local potential
     Polarization accuracy = 1.7E-12, # of iterations =  42

     total cpu time spent up to now is    24558.9 secs

     total energy              =   -3432.27525627 Ry
     estimated scf accuracy    <       0.00000009 Ry
     electrostatic embedding   =      -0.07095699 Ry
     cavitation energy         =       0.02116704 Ry
     PV energy                 =      -0.08260664 Ry
     correction to one-el term =     193.25752387 Ry

     iteration # 84     ecut=    50.00 Ry     beta= 0.70
     Davidson diagonalization with overlap
     ethr =  2.61E-11,  avg # of iterations =  1.0

     negative rho (up, down):  1.442E-04 0.000E+00

     add environment contribution to local potential
     Polarization accuracy = 1.7E-12, # of iterations =  42

     total cpu time spent up to now is    24869.8 secs

     total energy              =   -3432.27525627 Ry
     estimated scf accuracy    <       0.00000009 Ry
     electrostatic embedding   =      -0.07095699 Ry
     cavitation energy         =       0.02116704 Ry
     PV energy                 =      -0.08260664 Ry
     correction to one-el term =     193.25752389 Ry

     iteration # 85     ecut=    50.00 Ry     beta= 0.70
     Davidson diagonalization with overlap
     ethr =  2.61E-11,  avg # of iterations =  1.0

     negative rho (up, down):  1.442E-04 0.000E+00

     add environment contribution to local potential
     Polarization accuracy = 1.7E-12, # of iterations =  42

     total cpu time spent up to now is    25161.7 secs

     total energy              =   -3432.27525627 Ry
     estimated scf accuracy    <       0.00000009 Ry
     electrostatic embedding   =      -0.07095699 Ry
     cavitation energy         =       0.02116704 Ry
     PV energy                 =      -0.08260664 Ry
     correction to one-el term =     193.25752400 Ry

     iteration # 86     ecut=    50.00 Ry     beta= 0.70
     Davidson diagonalization with overlap
     ethr =  2.61E-11,  avg # of iterations =  1.0

     negative rho (up, down):  1.442E-04 0.000E+00

     add environment contribution to local potential
     Polarization accuracy = 1.7E-12, # of iterations =  42

     total cpu time spent up to now is    25484.6 secs

     total energy              =   -3432.27525627 Ry
     estimated scf accuracy    <       0.00000009 Ry
     electrostatic embedding   =      -0.07095699 Ry
     cavitation energy         =       0.02116704 Ry
     PV energy                 =      -0.08260664 Ry
     correction to one-el term =     193.25752398 Ry

     iteration # 87     ecut=    50.00 Ry     beta= 0.70
     Davidson diagonalization with overlap
     ethr =  2.61E-11,  avg # of iterations =  1.0

     negative rho (up, down):  1.442E-04 0.000E+00

     add environment contribution to local potential
     Polarization accuracy = 1.7E-12, # of iterations =  42

     total cpu time spent up to now is    25753.5 secs

     total energy              =   -3432.27525627 Ry
     estimated scf accuracy    <       0.00000009 Ry
     electrostatic embedding   =      -0.07095699 Ry
     cavitation energy         =       0.02116704 Ry
     PV energy                 =      -0.08260664 Ry
     correction to one-el term =     193.25752400 Ry

     iteration # 88     ecut=    50.00 Ry     beta= 0.70
     Davidson diagonalization with overlap
     ethr =  2.61E-11,  avg # of iterations =  1.0

     negative rho (up, down):  1.442E-04 0.000E+00

     add environment contribution to local potential
     Polarization accuracy = 8.5E-12, # of iterations =  40

     total cpu time spent up to now is    26009.7 secs

     total energy              =   -3432.27525627 Ry
     estimated scf accuracy    <       0.00000009 Ry
     electrostatic embedding   =      -0.07095699 Ry
     cavitation energy         =       0.02116704 Ry
     PV energy                 =      -0.08260664 Ry
     correction to one-el term =     193.25752391 Ry

     iteration # 89     ecut=    50.00 Ry     beta= 0.70
     Davidson diagonalization with overlap
     ethr =  2.61E-11,  avg # of iterations =  1.0

     negative rho (up, down):  1.442E-04 0.000E+00

     add environment contribution to local potential
     Polarization accuracy = 1.7E-12, # of iterations =  42

     total cpu time spent up to now is    26289.3 secs

     total energy              =   -3432.27525627 Ry
     estimated scf accuracy    <       0.00000009 Ry
     electrostatic embedding   =      -0.07095699 Ry
     cavitation energy         =       0.02116704 Ry
     PV energy                 =      -0.08260664 Ry
     correction to one-el term =     193.25752326 Ry

     iteration # 90     ecut=    50.00 Ry     beta= 0.70
     Davidson diagonalization with overlap
     ethr =  2.61E-11,  avg # of iterations =  1.0

     negative rho (up, down):  1.442E-04 0.000E+00

     add environment contribution to local potential
     Polarization accuracy = 1.7E-12, # of iterations =  42

     total cpu time spent up to now is    26614.9 secs

     total energy              =   -3432.27525627 Ry
     estimated scf accuracy    <       0.00000009 Ry
     electrostatic embedding   =      -0.07095699 Ry
     cavitation energy         =       0.02116704 Ry
     PV energy                 =      -0.08260664 Ry
     correction to one-el term =     193.25752375 Ry

     iteration # 91     ecut=    50.00 Ry     beta= 0.70
     Davidson diagonalization with overlap
     ethr =  2.61E-11,  avg # of iterations =  1.0

     negative rho (up, down):  1.442E-04 0.000E+00

     add environment contribution to local potential
     Polarization accuracy = 1.7E-12, # of iterations =  42

     total cpu time spent up to now is    26868.3 secs

     total energy              =   -3432.27525627 Ry
     estimated scf accuracy    <       0.00000009 Ry
     electrostatic embedding   =      -0.07095699 Ry
     cavitation energy         =       0.02116704 Ry
     PV energy                 =      -0.08260664 Ry
     correction to one-el term =     193.25752373 Ry

     iteration # 92     ecut=    50.00 Ry     beta= 0.70
     Davidson diagonalization with overlap
     ethr =  2.61E-11,  avg # of iterations =  1.0

     negative rho (up, down):  1.442E-04 0.000E+00

     add environment contribution to local potential
     Polarization accuracy = 1.7E-12, # of iterations =  42

     total cpu time spent up to now is    27148.2 secs

     total energy              =   -3432.27525627 Ry
     estimated scf accuracy    <       0.00000009 Ry
     electrostatic embedding   =      -0.07095699 Ry
     cavitation energy         =       0.02116704 Ry
     PV energy                 =      -0.08260664 Ry
     correction to one-el term =     193.25752378 Ry

     iteration # 93     ecut=    50.00 Ry     beta= 0.70
     Davidson diagonalization with overlap
     ethr =  2.61E-11,  avg # of iterations =  1.0

     negative rho (up, down):  1.442E-04 0.000E+00

     add environment contribution to local potential
     Polarization accuracy = 1.7E-12, # of iterations =  42

     total cpu time spent up to now is    27462.2 secs

     total energy              =   -3432.27525627 Ry
     estimated scf accuracy    <       0.00000009 Ry
     electrostatic embedding   =      -0.07095699 Ry
     cavitation energy         =       0.02116704 Ry
     PV energy                 =      -0.08260664 Ry
     correction to one-el term =     193.25752377 Ry

     iteration # 94     ecut=    50.00 Ry     beta= 0.70
     Davidson diagonalization with overlap
     ethr =  2.61E-11,  avg # of iterations =  1.0

     negative rho (up, down):  1.442E-04 0.000E+00

     add environment contribution to local potential
     Polarization accuracy = 1.7E-12, # of iterations =  42

     total cpu time spent up to now is    27729.8 secs

     total energy              =   -3432.27525627 Ry
     estimated scf accuracy    <       0.00000009 Ry
     electrostatic embedding   =      -0.07095699 Ry
     cavitation energy         =       0.02116704 Ry
     PV energy                 =      -0.08260664 Ry
     correction to one-el term =     193.25752376 Ry

     iteration # 95     ecut=    50.00 Ry     beta= 0.70
     Davidson diagonalization with overlap
     ethr =  2.61E-11,  avg # of iterations =  1.0

     negative rho (up, down):  1.442E-04 0.000E+00

     add environment contribution to local potential
     Polarization accuracy = 1.7E-12, # of iterations =  42

     total cpu time spent up to now is    27970.6 secs

     total energy              =   -3432.27525627 Ry
     estimated scf accuracy    <       0.00000009 Ry
     electrostatic embedding   =      -0.07095699 Ry
     cavitation energy         =       0.02116704 Ry
     PV energy                 =      -0.08260664 Ry
     correction to one-el term =     193.25752376 Ry

     iteration # 96     ecut=    50.00 Ry     beta= 0.70
     Davidson diagonalization with overlap
     ethr =  2.61E-11,  avg # of iterations =  1.0

     negative rho (up, down):  1.442E-04 0.000E+00

     add environment contribution to local potential
     Polarization accuracy = 1.7E-12, # of iterations =  42

     total cpu time spent up to now is    28273.4 secs

     total energy              =   -3432.27525627 Ry
     estimated scf accuracy    <       0.00000009 Ry
     electrostatic embedding   =      -0.07095700 Ry
     cavitation energy         =       0.02116704 Ry
     PV energy                 =      -0.08260664 Ry
     correction to one-el term =     193.25752367 Ry

     iteration # 97     ecut=    50.00 Ry     beta= 0.70
     Davidson diagonalization with overlap
     ethr =  2.61E-11,  avg # of iterations =  1.0

     negative rho (up, down):  1.442E-04 0.000E+00

     add environment contribution to local potential
     Polarization accuracy = 1.8E-12, # of iterations =  42

     total cpu time spent up to now is    28553.2 secs

     total energy              =   -3432.27525627 Ry
     estimated scf accuracy    <       0.00000009 Ry
     electrostatic embedding   =      -0.07095699 Ry
     cavitation energy         =       0.02116704 Ry
     PV energy                 =      -0.08260664 Ry
     correction to one-el term =     193.25752378 Ry

     iteration # 98     ecut=    50.00 Ry     beta= 0.70
     Davidson diagonalization with overlap
     ethr =  2.61E-11,  avg # of iterations =  1.0

     negative rho (up, down):  1.442E-04 0.000E+00

     add environment contribution to local potential
     Polarization accuracy = 1.7E-12, # of iterations =  42

     total cpu time spent up to now is    28874.9 secs

     total energy              =   -3432.27525627 Ry
     estimated scf accuracy    <       0.00000009 Ry
     electrostatic embedding   =      -0.07095700 Ry
     cavitation energy         =       0.02116704 Ry
     PV energy                 =      -0.08260664 Ry
     correction to one-el term =     193.25752362 Ry

     iteration # 99     ecut=    50.00 Ry     beta= 0.70
     Davidson diagonalization with overlap
     ethr =  2.61E-11,  avg # of iterations =  1.0

     negative rho (up, down):  1.442E-04 0.000E+00

     add environment contribution to local potential
     Polarization accuracy = 1.7E-12, # of iterations =  42

     total cpu time spent up to now is    29172.1 secs

     total energy              =   -3432.27525627 Ry
     estimated scf accuracy    <       0.00000009 Ry
     electrostatic embedding   =      -0.07095699 Ry
     cavitation energy         =       0.02116704 Ry
     PV energy                 =      -0.08260664 Ry
     correction to one-el term =     193.25752387 Ry

     iteration #100     ecut=    50.00 Ry     beta= 0.70
     Davidson diagonalization with overlap
     ethr =  2.61E-11,  avg # of iterations =  1.0

     negative rho (up, down):  1.442E-04 0.000E+00

     the potential shift due to the Gaussian-smeared nuclei is    -1.3353 ev

     total cpu time spent up to now is    29487.8 secs

     End of self-consistent calculation

          k = 0.2500 0.2752 0.0000 ( 34780 PWs)   bands (ev):

[...]

     total energy              =   -3432.59552331 Ry
     estimated scf accuracy    <       0.00000010 Ry
     electrostatic embedding   =      -0.06405554 Ry
     cavitation energy         =       0.02102853 Ry
     PV energy                 =      -0.07968124 Ry
     correction to one-el term =     186.39990969 Ry

     iteration # 50     ecut=    50.00 Ry     beta= 0.70
     Davidson diagonalization with overlap
     ethr =  2.61E-11,  avg # of iterations =  1.0

     negative rho (up, down):  1.488E-04 0.000E+00

     add environment contribution to local potential
     Polarization accuracy = 3.9E-12, # of iterations =  42

     total cpu time spent up to now is   209648.2 secs

     total energy              =   -3432.59552331 Ry
     estimated scf accuracy    <       0.00000010 Ry
     electrostatic embedding   =      -0.06405554 Ry
     cavitation energy         =       0.02102853 Ry
     PV energy                 =      -0.07968124 Ry
     correction to one-el term =     186.39990919 Ry

     iteration # 51     ecut=    50.00 Ry     beta= 0.70
     Davidson diagonalization with overlap
     ethr =  2.61E-11,  avg # of iterations =  1.0

     negative rho (up, down):  1.488E-04 0.000E+00

     add environment contribution to local potential
     Polarization accuracy = 3.9E-12, # of iterations =  42

     total cpu time spent up to now is   209775.4 secs

     total energy              =   -3432.59552331 Ry
     estimated scf accuracy    <       0.00000010 Ry
     electrostatic embedding   =      -0.06405554 Ry
     cavitation energy         =       0.02102853 Ry
     PV energy                 =      -0.07968124 Ry
     correction to one-el term =     186.39990905 Ry

     iteration # 52     ecut=    50.00 Ry     beta= 0.70
     Davidson diagonalization with overlap
     ethr =  2.61E-11,  avg # of iterations =  1.0

     negative rho (up, down):  1.488E-04 0.000E+00

     add environment contribution to local potential
     Polarization accuracy = 3.9E-12, # of iterations =  42

     total cpu time spent up to now is   209911.8 secs

     total energy              =   -3432.59552331 Ry
     estimated scf accuracy    <       0.00000010 Ry
     electrostatic embedding   =      -0.06405554 Ry
     cavitation energy         =       0.02102853 Ry
     PV energy                 =      -0.07968124 Ry
     correction to one-el term =     186.39990894 Ry

     iteration # 53     ecut=    50.00 Ry     beta= 0.70
     Davidson diagonalization with overlap
     ethr =  2.61E-11,  avg # of iterations =  1.0

     negative rho (up, down):  1.488E-04 0.000E+00

     add environment contribution to local potential
     Polarization accuracy = 3.9E-12, # of iterations =  42

     total cpu time spent up to now is   210064.4 secs

     total energy              =   -3432.59552331 Ry
     estimated scf accuracy    <       0.00000010 Ry
     electrostatic embedding   =      -0.06405554 Ry
     cavitation energy         =       0.02102853 Ry
     PV energy                 =      -0.07968124 Ry
     correction to one-el term =     186.39990900 Ry

     iteration # 54     ecut=    50.00 Ry     beta= 0.70
     Davidson diagonalization with overlap
     ethr =  2.61E-11,  avg # of iterations =  1.0

     negative rho (up, down):  1.488E-04 0.000E+00

     add environment contribution to local potential
     Polarization accuracy = 3.9E-12, # of iterations =  42

     total cpu time spent up to now is   210219.5 secs

     total energy              =   -3432.59552331 Ry
     estimated scf accuracy    <       0.00000010 Ry
     electrostatic embedding   =      -0.06405554 Ry
     cavitation energy         =       0.02102853 Ry
     PV energy                 =      -0.07968124 Ry
     correction to one-el term =     186.39990902 Ry

     iteration # 55     ecut=    50.00 Ry     beta= 0.70
     Davidson diagonalization with overlap
     ethr =  2.61E-11,  avg # of iterations =  1.0

     negative rho (up, down):  1.488E-04 0.000E+00

     add environment contribution to local potential
     Polarization accuracy = 3.9E-12, # of iterations =  42

     total cpu time spent up to now is   210337.6 secs

     total energy              =   -3432.59552331 Ry
     estimated scf accuracy    <       0.00000010 Ry
     electrostatic embedding   =      -0.06405554 Ry
     cavitation energy         =       0.02102853 Ry
     PV energy                 =      -0.07968124 Ry
     correction to one-el term =     186.39990895 Ry

     iteration # 56     ecut=    50.00 Ry     beta= 0.70
     Davidson diagonalization with overlap
     ethr =  2.61E-11,  avg # of iterations =  1.0

     negative rho (up, down):  1.488E-04 0.000E+00

     add environment contribution to local potential
     Polarization accuracy = 3.9E-12, # of iterations =  42

     total cpu time spent up to now is   210487.0 secs

     total energy              =   -3432.59552331 Ry
     estimated scf accuracy    <       0.00000010 Ry
     electrostatic embedding   =      -0.06405554 Ry
     cavitation energy         =       0.02102853 Ry
     PV energy                 =      -0.07968124 Ry
     correction to one-el term =     186.39990898 Ry

     iteration # 57     ecut=    50.00 Ry     beta= 0.70
     Davidson diagonalization with overlap
     ethr =  2.61E-11,  avg # of iterations =  1.0

     negative rho (up, down):  1.488E-04 0.000E+00

     add environment contribution to local potential
     Polarization accuracy = 3.9E-12, # of iterations =  42

     total cpu time spent up to now is   210608.5 secs

     total energy              =   -3432.59552331 Ry
     estimated scf accuracy    <       0.00000010 Ry
     electrostatic embedding   =      -0.06405554 Ry
     cavitation energy         =       0.02102853 Ry
     PV energy                 =      -0.07968124 Ry
     correction to one-el term =     186.39990898 Ry

     iteration # 58     ecut=    50.00 Ry     beta= 0.70
     Davidson diagonalization with overlap
     ethr =  2.61E-11,  avg # of iterations =  1.0

     negative rho (up, down):  1.488E-04 0.000E+00

     add environment contribution to local potential
     Polarization accuracy = 3.9E-12, # of iterations =  42

     total cpu time spent up to now is   210735.1 secs

     total energy              =   -3432.59552331 Ry
     estimated scf accuracy    <       0.00000010 Ry
     electrostatic embedding   =      -0.06405554 Ry
     cavitation energy         =       0.02102853 Ry
     PV energy                 =      -0.07968124 Ry
     correction to one-el term =     186.39990895 Ry

     iteration # 59     ecut=    50.00 Ry     beta= 0.70
     Davidson diagonalization with overlap
     ethr =  2.61E-11,  avg # of iterations =  1.0

     negative rho (up, down):  1.488E-04 0.000E+00

     add environment contribution to local potential
     Polarization accuracy = 9.0E-12, # of iterations =  41

     total cpu time spent up to now is   210880.9 secs

     total energy              =   -3432.59552331 Ry
     estimated scf accuracy    <       0.00000010 Ry
     electrostatic embedding   =      -0.06405554 Ry
     cavitation energy         =       0.02102853 Ry
     PV energy                 =      -0.07968124 Ry
     correction to one-el term =     186.39990896 Ry

     iteration # 60     ecut=    50.00 Ry     beta= 0.70
     Davidson diagonalization with overlap
     ethr =  2.61E-11,  avg # of iterations =  1.0

     negative rho (up, down):  1.488E-04 0.000E+00

     add environment contribution to local potential
     Polarization accuracy = 3.9E-12, # of iterations =  42

     total cpu time spent up to now is   210989.7 secs

     total energy              =   -3432.59552331 Ry
     estimated scf accuracy    <       0.00000010 Ry
     electrostatic embedding   =      -0.06405554 Ry
     cavitation energy         =       0.02102853 Ry
     PV energy                 =      -0.07968124 Ry
     correction to one-el term =     186.39990655 Ry

     iteration # 61     ecut=    50.00 Ry     beta= 0.70
     Davidson diagonalization with overlap
     ethr =  2.61E-11,  avg # of iterations =  1.0

     negative rho (up, down):  1.488E-04 0.000E+00

     add environment contribution to local potential
     Polarization accuracy = 3.9E-12, # of iterations =  42

     total cpu time spent up to now is   211110.8 secs

     total energy              =   -3432.59552331 Ry
     estimated scf accuracy    <       0.00000010 Ry
     electrostatic embedding   =      -0.06405554 Ry
     cavitation energy         =       0.02102853 Ry
     PV energy                 =      -0.07968124 Ry
     correction to one-el term =     186.39990880 Ry

     iteration # 62     ecut=    50.00 Ry     beta= 0.70
     Davidson diagonalization with overlap
     ethr =  2.61E-11,  avg # of iterations =  1.0

     negative rho (up, down):  1.488E-04 0.000E+00

     add environment contribution to local potential
     Polarization accuracy = 3.9E-12, # of iterations =  42

     total cpu time spent up to now is   211249.7 secs

     total energy              =   -3432.59552331 Ry
     estimated scf accuracy    <       0.00000010 Ry
     electrostatic embedding   =      -0.06405554 Ry
     cavitation energy         =       0.02102853 Ry
     PV energy                 =      -0.07968124 Ry
     correction to one-el term =     186.39990886 Ry

     iteration # 63     ecut=    50.00 Ry     beta= 0.70
     Davidson diagonalization with overlap
     ethr =  2.61E-11,  avg # of iterations =  1.0

     negative rho (up, down):  1.488E-04 0.000E+00

     add environment contribution to local potential
     Polarization accuracy = 3.9E-12, # of iterations =  42

     total cpu time spent up to now is   211395.4 secs

     total energy              =   -3432.59552331 Ry
     estimated scf accuracy    <       0.00000010 Ry
     electrostatic embedding   =      -0.06405554 Ry
     cavitation energy         =       0.02102853 Ry
     PV energy                 =      -0.07968124 Ry
     correction to one-el term =     186.39990885 Ry

     iteration # 64     ecut=    50.00 Ry     beta= 0.70
     Davidson diagonalization with overlap
     ethr =  2.61E-11,  avg # of iterations =  1.0

     negative rho (up, down):  1.488E-04 0.000E+00

     add environment contribution to local potential
     Polarization accuracy = 3.9E-12, # of iterations =  42

     total cpu time spent up to now is   211533.6 secs

     total energy              =   -3432.59552331 Ry
     estimated scf accuracy    <       0.00000010 Ry
     electrostatic embedding   =      -0.06405554 Ry
     cavitation energy         =       0.02102853 Ry
     PV energy                 =      -0.07968124 Ry
     correction to one-el term =     186.39990910 Ry

     iteration # 65     ecut=    50.00 Ry     beta= 0.70
     Davidson diagonalization with overlap
     ethr =  2.61E-11,  avg # of iterations =  1.0

     negative rho (up, down):  1.488E-04 0.000E+00

     add environment contribution to local potential
     Polarization accuracy = 3.9E-12, # of iterations =  42

     total cpu time spent up to now is   211708.2 secs

     total energy              =   -3432.59552331 Ry
     estimated scf accuracy    <       0.00000010 Ry
     electrostatic embedding   =      -0.06405554 Ry
     cavitation energy         =       0.02102853 Ry
     PV energy                 =      -0.07968124 Ry
     correction to one-el term =     186.39990937 Ry

     iteration # 66     ecut=    50.00 Ry     beta= 0.70
     Davidson diagonalization with overlap
     ethr =  2.61E-11,  avg # of iterations =  1.0

     negative rho (up, down):  1.488E-04 0.000E+00

     add environment contribution to local potential
     Polarization accuracy = 3.9E-12, # of iterations =  42

     total cpu time spent up to now is   211825.3 secs

     total energy              =   -3432.59552331 Ry
     estimated scf accuracy    <       0.00000010 Ry
     electrostatic embedding   =      -0.06405554 Ry
     cavitation energy         =       0.02102853 Ry
     PV energy                 =      -0.07968124 Ry
     correction to one-el term =     186.39990919 Ry

     iteration # 67     ecut=    50.00 Ry     beta= 0.70
     Davidson diagonalization with overlap
     ethr =  2.61E-11,  avg # of iterations =  1.0

     negative rho (up, down):  1.488E-04 0.000E+00

     add environment contribution to local potential
     Polarization accuracy = 3.7E-12, # of iterations =  43

     total cpu time spent up to now is   211964.5 secs

     total energy              =   -3432.59552331 Ry
     estimated scf accuracy    <       0.00000010 Ry
     electrostatic embedding   =      -0.06405554 Ry
     cavitation energy         =       0.02102853 Ry
     PV energy                 =      -0.07968124 Ry
     correction to one-el term =     186.39990935 Ry

     iteration # 68     ecut=    50.00 Ry     beta= 0.70
     Davidson diagonalization with overlap
     ethr =  2.61E-11,  avg # of iterations =  1.0

     negative rho (up, down):  1.488E-04 0.000E+00

     add environment contribution to local potential
     Polarization accuracy = 3.9E-12, # of iterations =  42

     total cpu time spent up to now is   212094.6 secs

     total energy              =   -3432.59552331 Ry
     estimated scf accuracy    <       0.00000010 Ry
     electrostatic embedding   =      -0.06405554 Ry
     cavitation energy         =       0.02102853 Ry
     PV energy                 =      -0.07968124 Ry
     correction to one-el term =     186.39990938 Ry

     iteration # 69     ecut=    50.00 Ry     beta= 0.70
     Davidson diagonalization with overlap
     ethr =  2.61E-11,  avg # of iterations =  1.0

     negative rho (up, down):  1.488E-04 0.000E+00

     add environment contribution to local potential
     Polarization accuracy = 3.9E-12, # of iterations =  42

     total cpu time spent up to now is   212222.3 secs

     total energy              =   -3432.59552331 Ry
     estimated scf accuracy    <       0.00000010 Ry
     electrostatic embedding   =      -0.06405554 Ry
     cavitation energy         =       0.02102853 Ry
     PV energy                 =      -0.07968124 Ry
     correction to one-el term =     186.39990919 Ry

     iteration # 70     ecut=    50.00 Ry     beta= 0.70
     Davidson diagonalization with overlap
     ethr =  2.61E-11,  avg # of iterations =  1.0

     negative rho (up, down):  1.488E-04 0.000E+00

     add environment contribution to local potential
     Polarization accuracy = 3.9E-12, # of iterations =  42

     total cpu time spent up to now is   212358.7 secs

     total energy              =   -3432.59552331 Ry
     estimated scf accuracy    <       0.00000010 Ry
     electrostatic embedding   =      -0.06405554 Ry
     cavitation energy         =       0.02102853 Ry
     PV energy                 =      -0.07968124 Ry
     correction to one-el term =     186.39990905 Ry

     iteration # 71     ecut=    50.00 Ry     beta= 0.70
     Davidson diagonalization with overlap
     ethr =  2.61E-11,  avg # of iterations =  1.0

     negative rho (up, down):  1.488E-04 0.000E+00

     add environment contribution to local potential
     Polarization accuracy = 3.9E-12, # of iterations =  42

     total cpu time spent up to now is   212495.9 secs

     total energy              =   -3432.59552331 Ry
     estimated scf accuracy    <       0.00000010 Ry
     electrostatic embedding   =      -0.06405554 Ry
     cavitation energy         =       0.02102853 Ry
     PV energy                 =      -0.07968124 Ry
     correction to one-el term =     186.39990934 Ry

     iteration # 72     ecut=    50.00 Ry     beta= 0.70
     Davidson diagonalization with overlap
     ethr =  2.61E-11,  avg # of iterations =  1.0

     negative rho (up, down):  1.488E-04 0.000E+00

     add environment contribution to local potential
     Polarization accuracy = 3.9E-12, # of iterations =  42

     total cpu time spent up to now is   212629.9 secs

     total energy              =   -3432.59552331 Ry
     estimated scf accuracy    <       0.00000010 Ry
     electrostatic embedding   =      -0.06405554 Ry
     cavitation energy         =       0.02102853 Ry
     PV energy                 =      -0.07968124 Ry
     correction to one-el term =     186.39990895 Ry

     iteration # 73     ecut=    50.00 Ry     beta= 0.70
     Davidson diagonalization with overlap
     ethr =  2.61E-11,  avg # of iterations =  1.0

     negative rho (up, down):  1.488E-04 0.000E+00

     add environment contribution to local potential
     Polarization accuracy = 3.9E-12, # of iterations =  42

     total cpu time spent up to now is   212774.9 secs

     total energy              =   -3432.59552331 Ry
     estimated scf accuracy    <       0.00000010 Ry
     electrostatic embedding   =      -0.06405554 Ry
     cavitation energy         =       0.02102853 Ry
     PV energy                 =      -0.07968124 Ry
     correction to one-el term =     186.39990898 Ry

     iteration # 74     ecut=    50.00 Ry     beta= 0.70
     Davidson diagonalization with overlap
     ethr =  2.61E-11,  avg # of iterations =  1.0

     negative rho (up, down):  1.488E-04 0.000E+00

     add environment contribution to local potential
     Polarization accuracy = 3.9E-12, # of iterations =  42

     total cpu time spent up to now is   212908.7 secs

     total energy              =   -3432.59552331 Ry
     estimated scf accuracy    <       0.00000010 Ry
     electrostatic embedding   =      -0.06405554 Ry
     cavitation energy         =       0.02102853 Ry
     PV energy                 =      -0.07968124 Ry
     correction to one-el term =     186.39990899 Ry

     iteration # 75     ecut=    50.00 Ry     beta= 0.70
     Davidson diagonalization with overlap
     ethr =  2.61E-11,  avg # of iterations =  1.0

     negative rho (up, down):  1.488E-04 0.000E+00

     add environment contribution to local potential
     Polarization accuracy = 3.9E-12, # of iterations =  42

     total cpu time spent up to now is   213063.3 secs

     total energy              =   -3432.59552331 Ry
     estimated scf accuracy    <       0.00000010 Ry
     electrostatic embedding   =      -0.06405554 Ry
     cavitation energy         =       0.02102853 Ry
     PV energy                 =      -0.07968124 Ry
     correction to one-el term =     186.39990900 Ry

     iteration # 76     ecut=    50.00 Ry     beta= 0.70
     Davidson diagonalization with overlap
     ethr =  2.61E-11,  avg # of iterations =  1.0

     negative rho (up, down):  1.488E-04 0.000E+00

     add environment contribution to local potential
     Polarization accuracy = 3.9E-12, # of iterations =  42

     total cpu time spent up to now is   213195.8 secs

     total energy              =   -3432.59552331 Ry
     estimated scf accuracy    <       0.00000010 Ry
     electrostatic embedding   =      -0.06405554 Ry
     cavitation energy         =       0.02102853 Ry
     PV energy                 =      -0.07968124 Ry
     correction to one-el term =     186.39990908 Ry

     iteration # 77     ecut=    50.00 Ry     beta= 0.70
     Davidson diagonalization with overlap
     ethr =  2.61E-11,  avg # of iterations =  1.0

     negative rho (up, down):  1.488E-04 0.000E+00

     add environment contribution to local potential
     Polarization accuracy = 3.9E-12, # of iterations =  42

     total cpu time spent up to now is   213326.7 secs

     total energy              =   -3432.59552331 Ry
     estimated scf accuracy    <       0.00000010 Ry
     electrostatic embedding   =      -0.06405554 Ry
     cavitation energy         =       0.02102853 Ry
     PV energy                 =      -0.07968124 Ry
     correction to one-el term =     186.39990914 Ry

     iteration # 78     ecut=    50.00 Ry     beta= 0.70
     Davidson diagonalization with overlap
     ethr =  2.61E-11,  avg # of iterations =  1.0

     negative rho (up, down):  1.488E-04 0.000E+00

     add environment contribution to local potential
