
     Program PWSCF v.7.2 starts on 21Jul2023 at 11:31:17 
        Git branch: heads/qe-7.2
        Last git commit: b4c5e8deeb7d1863e7553a87b45f8d22c21926a5
        Last git commit date: Mon Mar 27 16:12:09 2023 +0000
        Last git commit subject: Merge branch 'merge_fix_hubbard' into 'develop'

     This program is part of the open-source Quantum ESPRESSO suite
     for quantum simulation of materials; please cite
         "P. Giannozzi et al., J. Phys.:Condens. Matter 21 395502 (2009);
         "P. Giannozzi et al., J. Phys.:Condens. Matter 29 465901 (2017);
         "P. Giannozzi et al., J. Chem. Phys. 152 154105 (2020);
          URL http://www.quantum-espresso.org", 
     in publications or presentations arising from this work. More details at
     http://www.quantum-espresso.org/quote

     Parallel version (MPI), running on    20 processors

     MPI processes distributed on     1 nodes
     93805 MiB available memory on the printing compute node when the environment starts
 
     Reading input from RuO2-110-0-2345.in

     Current dimensions of program PWSCF are:
     Max number of different atomic species (ntypx) = 10
     Max number of k-points (npk) =  40000
     Max angular momentum in pseudopotentials (lmaxx) =  4
 
     Reading input from environ.in:
     * Environ restarting
     * setting up water environment
     * using electronic solvent mode
     * setting boundary derivatives method to SCCS default
     
     file O.pbe-n-kjpaw_psl.0.1.UPF: wavefunction(s)  2P renormalized
     Found identity + ( -0.5000  0.0000  0.0000) symmetry
     This is a supercell, fractional translations are disabled
     Message from routine setup:
     using ibrav=0 with symmetry is DISCOURAGED, use correct ibrav instead
 
     R & G space division:  proc/nbgrp/npool/nimage =      20
     Subspace diagonalization in iterative solution of the eigenvalue problem:
     one sub-group per band group will be used
     scalapack distributed-memory algorithm (size of sub-group:  2*  2 procs)

 
     Parallelization info
     --------------------
     sticks:   dense  smooth     PW     G-vecs:    dense   smooth      PW
     Min         282     113     29                56190    14217    1913
     Max         283     114     30                56201    14227    1932
     Sum        5657    2263    593              1123933   284439   38425
 
     Using Slab Decomposition
 


     bravais-lattice index     =            0
     lattice parameter (alat)  =      12.1041  a.u.
     unit-cell volume          =    5954.5483 (a.u.)^3
     number of atoms/cell      =           48
     number of atomic types    =            3
     number of electrons       =       368.00
     number of Kohn-Sham states=          221
     kinetic-energy cutoff     =      50.0000  Ry
     charge density cutoff     =     500.0000  Ry
     scf convergence threshold =      1.0E-09
     mixing beta               =       0.7000
     number of iterations used =            8  local-TF  mixing
     energy convergence thresh.=      1.0E-04
     force convergence thresh. =      1.0E-04
     Exchange-correlation= PBE
                           (   1   4   3   4   0   0   0)
     nstep                     =          200


     ================================================================================
 
                                  Environ Setup Summary

     ================================================================================
 
     Please cite

          O. Andreussi, I. Dabo and N. Marzari, J. Chem. Phys. 136, 064102 (2012)

     in publications or presentations arising from this work.

     ================================================================================
 
     Parameters
     ==========

     compensation onset threshold      =               0.1000E+00
     static permittivity               =                    78.30
     surface tension in input (dyn/cm) =                    47.90
     surface tension in internal units =               0.6153E-04
     external pressure in input (GPa)  =                    -0.36
     external pressure in inter. units =              -0.2447E-04

     Solvent Boundary
     ================

     solvent mode                      =               electronic
     derivatives method                =                    chain
     numerical core for derivatives    =                      fft
     switching function adopted        =                     SCCS
     density limit for vacuum region   =               0.5000E-02
     density limit for bulk solvent    =               0.1000E-03

     Electrostatic Setup
     ===================

     electrostatic problem to solve    =              generalized
     numerical solver adopted          =                       cg
     type of auxiliary density adopted =                     none
     numerical core for poisson        =                      fft
     type of pbc corrections           =                parabolic
     numerical core for corrections    =                      1da

     ================================================================================
 

     celldm(1)=  12.104053  celldm(2)=   0.000000  celldm(3)=   0.000000
     celldm(4)=   0.000000  celldm(5)=   0.000000  celldm(6)=   0.000000

     crystal axes: (cart. coord. in units of alat)
               a(1) = (   1.000000   0.000000   0.000000 )  
               a(2) = (   0.000000   0.971735   0.000000 )  
               a(3) = (   0.000000   0.000000   3.455479 )  

     reciprocal axes: (cart. coord. in units 2 pi/alat)
               b(1) = (  1.000000  0.000000  0.000000 )  
               b(2) = (  0.000000  1.029087  0.000000 )  
               b(3) = (  0.000000  0.000000  0.289395 )  


     PseudoPot. # 1 for O  read from file:
     /gpfs/group/ixd4/default/Simon/pseudopotentials/materialscloud/SSSP_1.3.0_PBE_efficiency/O.pbe-n-kjpaw_psl.0.1.UPF
     MD5 check sum: 0234752ac141de4415c5fc33072bef88
     Pseudo is Projector augmented-wave + core cor, Zval =  6.0
     Generated using "atomic" code by A. Dal Corso  v.5.0.99 svn rev. 10869
     Shape of augmentation charge: BESSEL
     Using radial grid of 1095 points,  4 beta functions with: 
                l(1) =   0
                l(2) =   0
                l(3) =   1
                l(4) =   1
     Q(r) pseudized with 0 coefficients 


     PseudoPot. # 2 for Ru read from file:
     /gpfs/group/ixd4/default/Simon/pseudopotentials/materialscloud/SSSP_1.3.0_PBE_efficiency/Ru_ONCV_PBE-1.0.oncvpsp.upf
     MD5 check sum: be037bb81c227cfb9b1461a9f099f4bd
     Pseudo is Norm-conserving, Zval = 16.0
     Generated using ONCVPSP code by D. R. Hamann
     Using radial grid of 1458 points,  6 beta functions with: 
                l(1) =   0
                l(2) =   0
                l(3) =   1
                l(4) =   1
                l(5) =   2
                l(6) =   2

     PseudoPot. # 3 for H  read from file:
     /gpfs/group/ixd4/default/Simon/pseudopotentials/materialscloud/SSSP_1.3.0_PBE_efficiency/H.pbe-rrkjus_psl.1.0.0.UPF
     MD5 check sum: f52b6d4d1c606e5624b1dc7b2218f220
     Pseudo is Ultrasoft, Zval =  1.0
     Generated using "atomic" code by A. Dal Corso  v.5.1
     Using radial grid of  929 points,  2 beta functions with: 
                l(1) =   0
                l(2) =   0
     Q(r) pseudized with 0 coefficients 


     atomic species   valence    mass     pseudopotential
        O              6.00    15.99940     O ( 1.00)
        Ru            16.00   101.07000     Ru( 1.00)
        H              1.00     1.00794     H ( 1.00)

      8 Sym. Ops., with inversion, found



   Cartesian axes

     site n.     atom                  positions (alat units)
         1           O   tau(   1) = (   0.0000000   0.4858677   0.9370164  )
         2           O   tau(   2) = (   0.5000000   0.4858677   0.9370177  )
         3           O   tau(   3) = (   0.0000000   0.0000000   0.9955059  )
         4           O   tau(   4) = (   0.5000000   0.0000000   0.9955059  )
         5           Ru  tau(   5) = (   0.2500000   0.0000000   1.2470383  )
         6           Ru  tau(   6) = (   0.7500000   0.0000000   1.2470383  )
         7           O   tau(   7) = (   0.2500002   0.2938002   1.2289353  )
         8           O   tau(   8) = (   0.7499998   0.2938002   1.2289353  )
         9           Ru  tau(   9) = (   0.0000000   0.4858677   1.2137228  )
        10           Ru  tau(  10) = (   0.5000000   0.4858677   1.2137240  )
        11           O   tau(  11) = (   0.2500002   0.6779352   1.2289353  )
        12           O   tau(  12) = (   0.7499998   0.6779352   1.2289353  )
        13           O   tau(  13) = (   0.0000000   0.0000000   1.4271155  )
        14           O   tau(  14) = (   0.5000000   0.0000000   1.4271156  )
        15           O   tau(  15) = (   0.0000000   0.4858677   1.5307937  )
        16           O   tau(  16) = (   0.5000000   0.4858677   1.5308019  )
        17           Ru  tau(  17) = (   0.0000000   0.0000000   1.7277432  )
        18           Ru  tau(  18) = (   0.5000000   0.0000000   1.7277432  )
        19           O   tau(  19) = (   0.2499995   0.1899145   1.7277432  )
        20           O   tau(  20) = (   0.7500005   0.1899145   1.7277432  )
        21           Ru  tau(  21) = (   0.2499972   0.4858677   1.7277432  )
        22           Ru  tau(  22) = (   0.7500028   0.4858677   1.7277432  )
        23           O   tau(  23) = (   0.2499995   0.7818219   1.7277432  )
        24           O   tau(  24) = (   0.7500005   0.7818219   1.7277432  )
        25           O   tau(  25) = (   0.0000000   0.4858677   1.9246893  )
        26           O   tau(  26) = (   0.5000000   0.4858677   1.9246810  )
        27           O   tau(  27) = (   0.0000000   0.0000000   2.0283675  )
        28           O   tau(  28) = (   0.5000000   0.0000000   2.0283674  )
        29           Ru  tau(  29) = (   0.2500000   0.0000000   2.2084447  )
        30           Ru  tau(  30) = (   0.7500000   0.0000000   2.2084447  )
        31           O   tau(  31) = (   0.2500002   0.2938002   2.2265476  )
        32           O   tau(  32) = (   0.7499998   0.2938002   2.2265476  )
        33           Ru  tau(  33) = (   0.0000000   0.4858677   2.2417602  )
        34           Ru  tau(  34) = (   0.5000000   0.4858677   2.2417589  )
        35           O   tau(  35) = (   0.2500002   0.6779352   2.2265476  )
        36           O   tau(  36) = (   0.7499998   0.6779352   2.2265476  )
        37           O   tau(  37) = (   0.0000000   0.0000000   2.4599805  )
        38           O   tau(  38) = (   0.5000000   0.0000000   2.4599805  )
        39           O   tau(  39) = (   0.0000000   0.4858677   2.5184666  )
        40           O   tau(  40) = (   0.5000000   0.4858677   2.5184652  )
        41           H   tau(  41) = (   0.0000000   0.1183592   0.9068878  )
        42           H   tau(  42) = (   0.0000000   0.1183592   2.5485917  )
        43           H   tau(  43) = (   0.5000000   0.1183592   0.9068879  )
        44           H   tau(  44) = (   0.5000000   0.1183592   2.5485916  )
        45           H   tau(  45) = (   0.0000000   0.8533762   0.9068878  )
        46           H   tau(  46) = (   0.0000000   0.8533762   2.5485917  )
        47           H   tau(  47) = (   0.5000000   0.8533762   0.9068879  )
        48           H   tau(  48) = (   0.5000000   0.8533762   2.5485916  )

     number of k points=     1  Marzari-Vanderbilt smearing, width (Ry)=  0.0300
                       cart. coord. in units 2pi/alat
        k(    1) = (   0.2500000   0.2572717   0.0000000), wk =   2.0000000

     Dense  grid:  1123933 G-vectors     FFT dimensions: (  90,  90, 300)

     Smooth grid:   284439 G-vectors     FFT dimensions: (  60,  54, 192)

     Estimated max dynamical RAM per process >     173.06 MB

     Estimated total dynamical RAM >       3.38 GB

     Check: negative core charge=   -0.000001

     Initial potential from superposition of free atoms

     starting charge     367.9933, renormalised to     368.0000

     add environment contribution to local potential
     Polarization accuracy = 5.2E-12, # of iterations =  21

     negative rho (up, down):  2.863E-05 0.000E+00
     Starting wfcs are  240 randomized atomic wfcs
     Checking if some PAW data can be deallocated... 

     total cpu time spent up to now is     1074.7 secs

     per-process dynamical memory:   145.0 Mb

     Self-consistent Calculation

     iteration #  1     ecut=    50.00 Ry     beta= 0.70
     Davidson diagonalization with overlap
     ethr =  1.00E-02,  avg # of iterations =  2.0

     total cpu time spent up to now is     1399.8 secs

     total energy              =   -3435.27012584 Ry
     estimated scf accuracy    <      10.22124125 Ry
     electrostatic embedding   =      -0.00171448 Ry
     cavitation energy         =       0.01932548 Ry
     PV energy                 =      -0.08803464 Ry
     correction to one-el term =     219.00946445 Ry

     iteration #  2     ecut=    50.00 Ry     beta= 0.70
     Davidson diagonalization with overlap
     ethr =  2.78E-03,  avg # of iterations =  2.0

     total cpu time spent up to now is     1716.1 secs

     total energy              =   -3437.26591524 Ry
     estimated scf accuracy    <       3.74010450 Ry
     electrostatic embedding   =      -0.00300607 Ry
     cavitation energy         =       0.01925627 Ry
     PV energy                 =      -0.08916612 Ry
     correction to one-el term =     219.01329317 Ry

     iteration #  3     ecut=    50.00 Ry     beta= 0.70
     Davidson diagonalization with overlap
     ethr =  1.02E-03,  avg # of iterations =  2.0

     total cpu time spent up to now is     2029.9 secs

     total energy              =   -3437.46978816 Ry
     estimated scf accuracy    <       0.65755750 Ry
     electrostatic embedding   =      -0.00363486 Ry
     cavitation energy         =       0.01919064 Ry
     PV energy                 =      -0.08977314 Ry
     correction to one-el term =     219.01518740 Ry

     iteration #  4     ecut=    50.00 Ry     beta= 0.70
     Davidson diagonalization with overlap
     ethr =  1.79E-04,  avg # of iterations =  5.0

     total cpu time spent up to now is     2310.7 secs

     total energy              =   -3437.53197708 Ry
     estimated scf accuracy    <       1.89630414 Ry
     electrostatic embedding   =      -0.00397543 Ry
     cavitation energy         =       0.01938689 Ry
     PV energy                 =      -0.08951986 Ry
     correction to one-el term =     219.01572555 Ry

     iteration #  5     ecut=    50.00 Ry     beta= 0.70
     Davidson diagonalization with overlap
     ethr =  1.79E-04,  avg # of iterations =  1.0

     total cpu time spent up to now is     2600.6 secs

     total energy              =   -3437.48611881 Ry
     estimated scf accuracy    <       1.15880524 Ry
     electrostatic embedding   =      -0.00432526 Ry
     cavitation energy         =       0.01960037 Ry
     PV energy                 =      -0.08935822 Ry
     correction to one-el term =     219.01640341 Ry

     iteration #  6     ecut=    50.00 Ry     beta= 0.70
     Davidson diagonalization with overlap
     ethr =  1.79E-04,  avg # of iterations =  2.0

     total cpu time spent up to now is     2925.4 secs

     total energy              =   -3437.46433845 Ry
     estimated scf accuracy    <       0.58532982 Ry
     electrostatic embedding   =      -0.00473541 Ry
     cavitation energy         =       0.02028783 Ry
     PV energy                 =      -0.08818800 Ry
     correction to one-el term =     219.01675639 Ry

     iteration #  7     ecut=    50.00 Ry     beta= 0.70
     Davidson diagonalization with overlap
     ethr =  1.59E-04,  avg # of iterations =  9.0

     total cpu time spent up to now is     3182.9 secs

     total energy              =   -3437.45306223 Ry
     estimated scf accuracy    <       0.19258757 Ry
     electrostatic embedding   =      -0.00477784 Ry
     cavitation energy         =       0.02086203 Ry
     PV energy                 =      -0.08683224 Ry
     correction to one-el term =     219.01631400 Ry

     iteration #  8     ecut=    50.00 Ry     beta= 0.70
     Davidson diagonalization with overlap
     ethr =  5.23E-05,  avg # of iterations =  5.0

     add environment contribution to local potential
     Polarization accuracy = 3.2E-12, # of iterations =  38

     total cpu time spent up to now is     3524.8 secs

     total energy              =   -3437.44918455 Ry
     estimated scf accuracy    <       0.07882473 Ry
     electrostatic embedding   =      -0.00444106 Ry
     cavitation energy         =       0.02166056 Ry
     PV energy                 =      -0.08457304 Ry
     correction to one-el term =     219.01459479 Ry

     iteration #  9     ecut=    50.00 Ry     beta= 0.70
     Davidson diagonalization with overlap
     ethr =  2.14E-05,  avg # of iterations =  9.0

     total cpu time spent up to now is     3890.1 secs

     total energy              =   -3437.55220074 Ry
     estimated scf accuracy    <       0.71938850 Ry
     electrostatic embedding   =      -0.10233753 Ry
     cavitation energy         =       0.02159446 Ry
     PV energy                 =      -0.08413939 Ry
     correction to one-el term =     160.30881733 Ry

     iteration # 10     ecut=    50.00 Ry     beta= 0.70
     Davidson diagonalization with overlap
     ethr =  2.14E-05,  avg # of iterations =  1.0

     total cpu time spent up to now is     4241.6 secs

     total energy              =   -3437.51887019 Ry
     estimated scf accuracy    <       0.46438183 Ry
     electrostatic embedding   =      -0.10277862 Ry
     cavitation energy         =       0.02156122 Ry
     PV energy                 =      -0.08410551 Ry
     correction to one-el term =     160.31015896 Ry

     iteration # 11     ecut=    50.00 Ry     beta= 0.70
     Davidson diagonalization with overlap
     ethr =  2.14E-05,  avg # of iterations =  2.0

     add environment contribution to local potential
     Polarization accuracy = 3.9E-12, # of iterations =  37

     total cpu time spent up to now is     4511.3 secs

     total energy              =   -3437.52227605 Ry
     estimated scf accuracy    <       0.02908169 Ry
     electrostatic embedding   =      -0.10622607 Ry
     cavitation energy         =       0.02143212 Ry
     PV energy                 =      -0.08391962 Ry
     correction to one-el term =     160.32085233 Ry

     iteration # 12     ecut=    50.00 Ry     beta= 0.70
     Davidson diagonalization with overlap
     ethr =  7.90E-06,  avg # of iterations =  3.0

     negative rho (up, down):  1.269E-06 0.000E+00

     add environment contribution to local potential
     Polarization accuracy = 4.1E-12, # of iterations =  39

     total cpu time spent up to now is     4822.2 secs

     total energy              =   -3437.53121586 Ry
     estimated scf accuracy    <       0.04591299 Ry
     electrostatic embedding   =      -0.11666161 Ry
     cavitation energy         =       0.02126613 Ry
     PV energy                 =      -0.08396146 Ry
     correction to one-el term =     160.92303636 Ry

     iteration # 13     ecut=    50.00 Ry     beta= 0.70
     Davidson diagonalization with overlap
     ethr =  7.90E-06,  avg # of iterations =  3.0

     negative rho (up, down):  4.530E-04 0.000E+00

     add environment contribution to local potential
     Polarization accuracy = 9.9E-12, # of iterations =  38

     total cpu time spent up to now is     5027.6 secs

     total energy              =   -3437.53461946 Ry
     estimated scf accuracy    <       0.00705850 Ry
     electrostatic embedding   =      -0.12413712 Ry
     cavitation energy         =       0.02116332 Ry
     PV energy                 =      -0.08385176 Ry
     correction to one-el term =     161.53855835 Ry

     iteration # 14     ecut=    50.00 Ry     beta= 0.70
     Davidson diagonalization with overlap
     ethr =  1.92E-06,  avg # of iterations =  7.0

     negative rho (up, down):  3.827E-05 0.000E+00

     add environment contribution to local potential
     Polarization accuracy = 3.6E-12, # of iterations =  38

     total cpu time spent up to now is     5371.1 secs

     total energy              =   -3437.53622193 Ry
     estimated scf accuracy    <       0.02341722 Ry
     electrostatic embedding   =      -0.13237234 Ry
     cavitation energy         =       0.02104860 Ry
     PV energy                 =      -0.08389049 Ry
     correction to one-el term =     162.32301752 Ry

     iteration # 15     ecut=    50.00 Ry     beta= 0.70
     Davidson diagonalization with overlap
     ethr =  1.92E-06,  avg # of iterations =  6.0

     negative rho (up, down):  6.212E-08 0.000E+00

     add environment contribution to local potential
     Polarization accuracy = 5.2E-12, # of iterations =  36

     total cpu time spent up to now is     5645.2 secs

     total energy              =   -3437.53611091 Ry
     estimated scf accuracy    <       0.02230437 Ry
     electrostatic embedding   =      -0.12839555 Ry
     cavitation energy         =       0.02092916 Ry
     PV energy                 =      -0.08409164 Ry
     correction to one-el term =     163.81700397 Ry

     iteration # 16     ecut=    50.00 Ry     beta= 0.70
     Davidson diagonalization with overlap
     ethr =  1.92E-06,  avg # of iterations =  5.0

     negative rho (up, down):  2.336E-07 0.000E+00

     add environment contribution to local potential
     Polarization accuracy = 6.1E-12, # of iterations =  37

     total cpu time spent up to now is     5946.6 secs

     total energy              =   -3437.53786864 Ry
     estimated scf accuracy    <       0.00161980 Ry
     electrostatic embedding   =      -0.12031652 Ry
     cavitation energy         =       0.02084755 Ry
     PV energy                 =      -0.08432578 Ry
     correction to one-el term =     165.51768277 Ry

     iteration # 17     ecut=    50.00 Ry     beta= 0.70
     Davidson diagonalization with overlap
     ethr =  4.40E-07,  avg # of iterations =  6.0

     negative rho (up, down):  1.190E-03 0.000E+00

     add environment contribution to local potential
     Polarization accuracy = 4.6E-12, # of iterations =  36

     total cpu time spent up to now is     6200.3 secs

     total energy              =   -3437.53811112 Ry
     estimated scf accuracy    <       0.00068401 Ry
     electrostatic embedding   =      -0.11774303 Ry
     cavitation energy         =       0.02081836 Ry
     PV energy                 =      -0.08438205 Ry
     correction to one-el term =     166.21966084 Ry

     iteration # 18     ecut=    50.00 Ry     beta= 0.70
     Davidson diagonalization with overlap
     ethr =  1.86E-07,  avg # of iterations = 11.0

     negative rho (up, down):  1.111E-03 0.000E+00

     add environment contribution to local potential
     Polarization accuracy = 4.1E-12, # of iterations =  36

     total cpu time spent up to now is     6494.8 secs

     total energy              =   -3437.53823239 Ry
     estimated scf accuracy    <       0.00017785 Ry
     electrostatic embedding   =      -0.11498421 Ry
     cavitation energy         =       0.02080279 Ry
     PV energy                 =      -0.08440072 Ry
     correction to one-el term =     166.88069296 Ry

     iteration # 19     ecut=    50.00 Ry     beta= 0.70
     Davidson diagonalization with overlap
     ethr =  4.83E-08,  avg # of iterations =  2.0

     negative rho (up, down):  1.454E-03 0.000E+00

     add environment contribution to local potential
     Polarization accuracy = 5.9E-12, # of iterations =  36

     total cpu time spent up to now is     6811.3 secs

     total energy              =   -3437.53825883 Ry
     estimated scf accuracy    <       0.00014453 Ry
     electrostatic embedding   =      -0.11396576 Ry
     cavitation energy         =       0.02081193 Ry
     PV energy                 =      -0.08436226 Ry
     correction to one-el term =     167.08763875 Ry

     iteration # 20     ecut=    50.00 Ry     beta= 0.70
     Davidson diagonalization with overlap
     ethr =  3.93E-08,  avg # of iterations =  2.0

     negative rho (up, down):  6.010E-04 0.000E+00

     add environment contribution to local potential
     Polarization accuracy = 3.1E-12, # of iterations =  36

     total cpu time spent up to now is     7113.7 secs

     total energy              =   -3437.53826364 Ry
     estimated scf accuracy    <       0.00006501 Ry
     electrostatic embedding   =      -0.11306517 Ry
     cavitation energy         =       0.02081245 Ry
     PV energy                 =      -0.08435008 Ry
     correction to one-el term =     167.24951881 Ry

     iteration # 21     ecut=    50.00 Ry     beta= 0.70
     Davidson diagonalization with overlap
     ethr =  1.77E-08,  avg # of iterations =  3.0

     negative rho (up, down):  4.992E-04 0.000E+00

     add environment contribution to local potential
     Polarization accuracy = 8.1E-12, # of iterations =  36

     total cpu time spent up to now is     7437.8 secs

     total energy              =   -3437.53826629 Ry
     estimated scf accuracy    <       0.00001210 Ry
     electrostatic embedding   =      -0.11244183 Ry
     cavitation energy         =       0.02081754 Ry
     PV energy                 =      -0.08432809 Ry
     correction to one-el term =     167.31972405 Ry

     iteration # 22     ecut=    50.00 Ry     beta= 0.70
     Davidson diagonalization with overlap
     ethr =  3.29E-09,  avg # of iterations =  2.0

     negative rho (up, down):  5.451E-06 0.000E+00

     add environment contribution to local potential
     Polarization accuracy = 2.2E-12, # of iterations =  36

     total cpu time spent up to now is     7702.6 secs

     total energy              =   -3437.53826418 Ry
     estimated scf accuracy    <       0.00001395 Ry
     electrostatic embedding   =      -0.11259498 Ry
     cavitation energy         =       0.02081763 Ry
     PV energy                 =      -0.08431891 Ry
     correction to one-el term =     167.30815407 Ry

     iteration # 23     ecut=    50.00 Ry     beta= 0.70
     Davidson diagonalization with overlap
     ethr =  3.29E-09,  avg # of iterations =  1.0

     negative rho (up, down):  1.077E-05 0.000E+00

     add environment contribution to local potential
     Polarization accuracy = 2.1E-12, # of iterations =  36

     total cpu time spent up to now is     8033.9 secs

     total energy              =   -3437.53826470 Ry
     estimated scf accuracy    <       0.00000560 Ry
     electrostatic embedding   =      -0.11268270 Ry
     cavitation energy         =       0.02082192 Ry
     PV energy                 =      -0.08430882 Ry
     correction to one-el term =     167.24844259 Ry

     iteration # 24     ecut=    50.00 Ry     beta= 0.70
     Davidson diagonalization with overlap
     ethr =  1.52E-09,  avg # of iterations =  1.0

     negative rho (up, down):  6.460E-06 0.000E+00

     add environment contribution to local potential
     Polarization accuracy = 3.3E-12, # of iterations =  36

     total cpu time spent up to now is     8359.8 secs

     total energy              =   -3437.53826472 Ry
     estimated scf accuracy    <       0.00000223 Ry
     electrostatic embedding   =      -0.11259030 Ry
     cavitation energy         =       0.02082196 Ry
     PV energy                 =      -0.08430340 Ry
     correction to one-el term =     167.27067807 Ry

     iteration # 25     ecut=    50.00 Ry     beta= 0.70
     Davidson diagonalization with overlap
     ethr =  6.05E-10,  avg # of iterations =  2.0

     negative rho (up, down):  1.880E-05 0.000E+00

     add environment contribution to local potential
     Polarization accuracy = 2.3E-12, # of iterations =  36

     total cpu time spent up to now is     8689.8 secs

     total energy              =   -3437.53826559 Ry
     estimated scf accuracy    <       0.00000087 Ry
     electrostatic embedding   =      -0.11276314 Ry
     cavitation energy         =       0.02082248 Ry
     PV energy                 =      -0.08430145 Ry
     correction to one-el term =     167.23642091 Ry

     iteration # 26     ecut=    50.00 Ry     beta= 0.70
     Davidson diagonalization with overlap
     ethr =  2.36E-10,  avg # of iterations =  2.0

     negative rho (up, down):  5.197E-05 0.000E+00

     add environment contribution to local potential
     Polarization accuracy = 1.8E-12, # of iterations =  36

     total cpu time spent up to now is     9027.9 secs

     total energy              =   -3437.53826652 Ry
     estimated scf accuracy    <       0.00000045 Ry
     electrostatic embedding   =      -0.11278683 Ry
     cavitation energy         =       0.02082264 Ry
     PV energy                 =      -0.08429956 Ry
     correction to one-el term =     167.23924052 Ry

     iteration # 27     ecut=    50.00 Ry     beta= 0.70
     Davidson diagonalization with overlap
     ethr =  1.23E-10,  avg # of iterations =  2.0

     negative rho (up, down):  7.666E-05 0.000E+00

     add environment contribution to local potential
     Polarization accuracy = 8.7E-12, # of iterations =  35

     total cpu time spent up to now is     9339.1 secs

     total energy              =   -3437.53826681 Ry
     estimated scf accuracy    <       0.00000024 Ry
     electrostatic embedding   =      -0.11284256 Ry
     cavitation energy         =       0.02082222 Ry
     PV energy                 =      -0.08430135 Ry
     correction to one-el term =     167.23606543 Ry

     iteration # 28     ecut=    50.00 Ry     beta= 0.70
     Davidson diagonalization with overlap
     ethr =  6.44E-11,  avg # of iterations =  1.0

     negative rho (up, down):  1.088E-04 0.000E+00

     add environment contribution to local potential
     Polarization accuracy = 9.1E-12, # of iterations =  35

     total cpu time spent up to now is     9651.3 secs

     total energy              =   -3437.53826689 Ry
     estimated scf accuracy    <       0.00000013 Ry
     electrostatic embedding   =      -0.11285468 Ry
     cavitation energy         =       0.02082192 Ry
     PV energy                 =      -0.08430273 Ry
     correction to one-el term =     167.23684354 Ry

     iteration # 29     ecut=    50.00 Ry     beta= 0.70
     Davidson diagonalization with overlap
     ethr =  3.67E-11,  avg # of iterations =  2.0

     negative rho (up, down):  1.115E-04 0.000E+00

     add environment contribution to local potential
     Polarization accuracy = 2.2E-12, # of iterations =  36

     total cpu time spent up to now is     9907.2 secs

     total energy              =   -3437.53826719 Ry
     estimated scf accuracy    <       0.00000007 Ry
     electrostatic embedding   =      -0.11284793 Ry
     cavitation energy         =       0.02082180 Ry
     PV energy                 =      -0.08430293 Ry
     correction to one-el term =     167.24150094 Ry

     iteration # 30     ecut=    50.00 Ry     beta= 0.70
     Davidson diagonalization with overlap
     ethr =  1.79E-11,  avg # of iterations =  1.0

     negative rho (up, down):  1.130E-04 0.000E+00

     add environment contribution to local potential
     Polarization accuracy = 1.8E-12, # of iterations =  36

     total cpu time spent up to now is    10171.7 secs

     total energy              =   -3437.53826734 Ry
     estimated scf accuracy    <       0.00000006 Ry
     electrostatic embedding   =      -0.11285668 Ry
     cavitation energy         =       0.02082178 Ry
     PV energy                 =      -0.08430267 Ry
     correction to one-el term =     167.24081972 Ry

     iteration # 31     ecut=    50.00 Ry     beta= 0.70
     Davidson diagonalization with overlap
     ethr =  1.57E-11,  avg # of iterations =  1.0

     negative rho (up, down):  1.024E-04 0.000E+00

     add environment contribution to local potential
     Polarization accuracy = 5.8E-12, # of iterations =  36

     total cpu time spent up to now is    10481.7 secs

     total energy              =   -3437.53826755 Ry
     estimated scf accuracy    <       0.00000005 Ry
     electrostatic embedding   =      -0.11285231 Ry
     cavitation energy         =       0.02082171 Ry
     PV energy                 =      -0.08430257 Ry
     correction to one-el term =     167.24226035 Ry

     iteration # 32     ecut=    50.00 Ry     beta= 0.70
     Davidson diagonalization with overlap
     ethr =  1.44E-11,  avg # of iterations =  1.0

     negative rho (up, down):  1.025E-04 0.000E+00

     add environment contribution to local potential
     Polarization accuracy = 3.4E-12, # of iterations =  36

     total cpu time spent up to now is    10774.2 secs

     total energy              =   -3437.53826808 Ry
     estimated scf accuracy    <       0.00000005 Ry
     electrostatic embedding   =      -0.11284408 Ry
     cavitation energy         =       0.02082161 Ry
     PV energy                 =      -0.08430205 Ry
     correction to one-el term =     167.24378113 Ry

     iteration # 33     ecut=    50.00 Ry     beta= 0.70
     Davidson diagonalization with overlap
     ethr =  1.33E-11,  avg # of iterations =  1.0

     negative rho (up, down):  9.283E-05 0.000E+00

     add environment contribution to local potential
     Polarization accuracy = 1.8E-12, # of iterations =  36

     total cpu time spent up to now is    10947.7 secs

     total energy              =   -3437.53826868 Ry
     estimated scf accuracy    <       0.00000005 Ry
     electrostatic embedding   =      -0.11284479 Ry
     cavitation energy         =       0.02082153 Ry
     PV energy                 =      -0.08430177 Ry
     correction to one-el term =     167.24402842 Ry

     iteration # 34     ecut=    50.00 Ry     beta= 0.70
     Davidson diagonalization with overlap
     ethr =  1.25E-11,  avg # of iterations =  2.0

     negative rho (up, down):  8.347E-05 0.000E+00

     add environment contribution to local potential
     Polarization accuracy = 1.9E-12, # of iterations =  37

     total cpu time spent up to now is    11291.3 secs

     total energy              =   -3437.53827008 Ry
     estimated scf accuracy    <       0.00000006 Ry
     electrostatic embedding   =      -0.11284225 Ry
     cavitation energy         =       0.02082146 Ry
     PV energy                 =      -0.08430132 Ry
     correction to one-el term =     167.24358683 Ry

     iteration # 35     ecut=    50.00 Ry     beta= 0.70
     Davidson diagonalization with overlap
     ethr =  1.25E-11,  avg # of iterations =  5.0

     negative rho (up, down):  7.975E-05 0.000E+00

     add environment contribution to local potential
     Polarization accuracy = 1.6E-12, # of iterations =  36

     total cpu time spent up to now is    11599.5 secs

     total energy              =   -3437.53827214 Ry
     estimated scf accuracy    <       0.00000003 Ry
     electrostatic embedding   =      -0.11283792 Ry
     cavitation energy         =       0.02082134 Ry
     PV energy                 =      -0.08430083 Ry
     correction to one-el term =     167.24392037 Ry

     iteration # 36     ecut=    50.00 Ry     beta= 0.70
     Davidson diagonalization with overlap
     ethr =  9.48E-12,  avg # of iterations =  2.0

     negative rho (up, down):  7.735E-05 0.000E+00

     add environment contribution to local potential
     Polarization accuracy = 8.9E-12, # of iterations =  36

     total cpu time spent up to now is    11978.0 secs

     total energy              =   -3437.53827409 Ry
     estimated scf accuracy    <       0.00000004 Ry
     electrostatic embedding   =      -0.11284392 Ry
     cavitation energy         =       0.02082149 Ry
     PV energy                 =      -0.08430115 Ry
     correction to one-el term =     167.24132436 Ry

     iteration # 37     ecut=    50.00 Ry     beta= 0.70
     Davidson diagonalization with overlap
     ethr =  9.48E-12,  avg # of iterations =  5.0

     negative rho (up, down):  8.429E-05 0.000E+00

     add environment contribution to local potential
     Polarization accuracy = 7.9E-12, # of iterations =  36

     total cpu time spent up to now is    12241.8 secs

     total energy              =   -3437.53827874 Ry
     estimated scf accuracy    <       0.00000001 Ry
     electrostatic embedding   =      -0.11284479 Ry
     cavitation energy         =       0.02082143 Ry
     PV energy                 =      -0.08430089 Ry
     correction to one-el term =     167.24077438 Ry

     iteration # 38     ecut=    50.00 Ry     beta= 0.70
     Davidson diagonalization with overlap
     ethr =  3.40E-12,  avg # of iterations =  5.0

     negative rho (up, down):  9.512E-05 0.000E+00

     add environment contribution to local potential
     Polarization accuracy = 4.1E-12, # of iterations =  36

     total cpu time spent up to now is    12561.1 secs

     total energy              =   -3437.53828143 Ry
     estimated scf accuracy    <          9.3E-09 Ry
     electrostatic embedding   =      -0.11284884 Ry
     cavitation energy         =       0.02082152 Ry
     PV energy                 =      -0.08430129 Ry
     correction to one-el term =     167.24048865 Ry

     iteration # 39     ecut=    50.00 Ry     beta= 0.70
     Davidson diagonalization with overlap
     ethr =  2.53E-12,  avg # of iterations =  4.0

     negative rho (up, down):  9.661E-05 0.000E+00

     add environment contribution to local potential
     Polarization accuracy = 6.6E-12, # of iterations =  36

     total cpu time spent up to now is    12874.7 secs

     total energy              =   -3437.53828313 Ry
     estimated scf accuracy    <          1.7E-09 Ry
     electrostatic embedding   =      -0.11285313 Ry
     cavitation energy         =       0.02082171 Ry
     PV energy                 =      -0.08430211 Ry
     correction to one-el term =     167.24038629 Ry

     iteration # 40     ecut=    50.00 Ry     beta= 0.70
     Davidson diagonalization with overlap
     ethr =  4.73E-13,  avg # of iterations =  5.0

     negative rho (up, down):  9.950E-05 0.000E+00

     add environment contribution to local potential
     Polarization accuracy = 7.1E-12, # of iterations =  36

     total cpu time spent up to now is    13161.2 secs

     total energy              =   -3437.53828353 Ry
     estimated scf accuracy    <          1.2E-09 Ry
     electrostatic embedding   =      -0.11284914 Ry
     cavitation energy         =       0.02082166 Ry
     PV energy                 =      -0.08430198 Ry
     correction to one-el term =     167.24184107 Ry

     iteration # 41     ecut=    50.00 Ry     beta= 0.70
     Davidson diagonalization with overlap
     ethr =  3.27E-13,  avg # of iterations =  2.0

     negative rho (up, down):  1.024E-04 0.000E+00

     the potential shift due to the Gaussian-smeared nuclei is    -1.3208 ev

     total cpu time spent up to now is    13434.2 secs

     End of self-consistent calculation

          k = 0.2500 0.2573 0.0000 ( 35510 PWs)   bands (ev):

   -76.1239 -76.1192 -76.1112 -76.1065 -75.4455 -75.4408 -75.4357 -75.4334
   -75.4310 -75.4287 -75.3504 -75.3455 -46.5329 -46.5271 -46.5202 -46.5144
   -46.0868 -46.0740 -45.9953 -45.9825 -45.8053 -45.7926 -45.7826 -45.7699
   -45.7517 -45.7457 -45.7081 -45.7077 -45.6959 -45.6955 -45.6780 -45.6723
   -45.4652 -45.4527 -45.3779 -45.3658 -45.3363 -45.3278 -45.3177 -45.3153
   -45.3053 -45.2821 -45.2572 -45.2480 -45.2424 -45.1927 -45.1908 -45.1764
   -25.5906 -25.5728 -25.5148 -25.4969 -21.9809 -21.7672 -21.6681 -21.6235
   -21.4182 -21.3696 -21.3333 -21.3077 -21.1995 -21.0739 -20.8896 -20.8761
   -20.8510 -20.7702 -20.7100 -20.5631 -20.4729 -20.4529 -20.4064 -20.2696
   -19.8498 -19.7173 -19.7171 -19.7017 -13.2051 -13.1874 -13.1385 -13.1208
   -10.9810 -10.7908 -10.6797 -10.6644 -10.0175 -10.0038  -9.7125  -9.4666
    -9.4551  -9.3727  -9.2980  -9.2537  -9.2127  -9.1967  -9.0553  -8.9814
    -8.9693  -8.9054  -8.9031  -8.8860  -8.8246  -8.8036  -8.6395  -8.5831
    -8.4592  -8.4544  -8.4388  -8.3372  -8.3236  -8.1127  -7.9659  -7.9466
    -7.8938  -7.7250  -7.6779  -7.5764  -7.4944  -7.4438  -7.4355  -7.2796
    -7.2582  -7.2535  -7.1591  -7.0157  -6.9816  -6.8918  -6.7818  -6.7751
    -6.6918  -6.6895  -6.6080  -6.5835  -6.5532  -6.3964  -6.3445  -6.2793
    -6.2209  -6.1818  -6.1797  -6.1553  -6.1419  -5.9133  -5.8237  -5.6841
    -5.5679  -5.4964  -5.4392  -5.3515  -5.2051  -5.0480  -4.9881  -4.8716
    -4.8145  -4.7627  -4.6832  -4.6547  -4.6001  -4.5163  -4.4787  -4.3209
    -3.3970  -3.3371  -3.1251  -3.1136  -3.0970  -3.0966  -3.0557  -2.9593
    -2.9014  -2.8572  -2.8361  -2.6628  -2.6533  -2.6390  -2.6360  -2.6091
    -2.5319  -2.5150  -2.5036  -2.4510  -2.3822  -2.3096  -2.0635  -2.0619
    -1.9489  -1.9216  -1.7603  -1.6569  -1.4755  -1.4724  -1.3251  -1.3053
    -1.2494  -1.2391  -1.0417  -1.0342  -0.8569  -0.7977  -0.1637  -0.1231
    -0.1008   0.2189   0.3028   0.3757   0.3925   0.7570   1.2095   1.2446
     1.2926   1.3845   1.4921   1.5053   1.6362   1.7547   1.8047   1.9756
     2.0009   2.0348   2.1471   2.4282   2.4527

     the Fermi energy is    -2.0551 ev

!    total energy              =   -3437.53828385 Ry
     estimated scf accuracy    <          3.5E-10 Ry
     smearing contrib. (-TS)   =       0.06562045 Ry
     internal energy E=F+TS    =   -3437.60390430 Ry

     The total energy is F=E-TS. E is the sum of the following terms:
     one-electron contribution =  -24623.52478512 Ry
     hartree contribution      =   12316.96269019 Ry
     xc contribution           =    -449.63208074 Ry
     ewald contribution        =    9417.99757884 Ry
     one-center paw contrib.   =    -266.47245454 Ry
     electrostatic embedding   =      -0.11285151 Ry
     cavitation energy         =       0.02082171 Ry
     PV energy                 =      -0.08430219 Ry
     correction to one-el term =     167.24147907 Ry

     WARNING: you are using the parabolic pbc correction;
              the potential shift above must be added to 
              band and Fermi energies.

     convergence has been achieved in  41 iterations

     negative rho (up, down):  1.024E-04 0.000E+00

     Forces acting on atoms (cartesian axes, Ry/au):

     atom    1 type  1   force =     0.00000000    0.00000000   -0.01766772
     atom    2 type  1   force =     0.00000000    0.00000000   -0.01767093
     atom    3 type  1   force =     0.00000000    0.00000000    0.06472611
     atom    4 type  1   force =     0.00000000    0.00000000    0.06472692
     atom    5 type  2   force =    -0.00000016    0.00000000   -0.00159792
     atom    6 type  2   force =     0.00000016    0.00000000   -0.00159792
     atom    7 type  1   force =     0.00000007    0.02743212   -0.00169575
     atom    8 type  1   force =    -0.00000007    0.02743212   -0.00169575
     atom    9 type  2   force =     0.00000000    0.00000000    0.00871573
     atom   10 type  2   force =     0.00000000    0.00000000    0.00872074
     atom   11 type  1   force =     0.00000007   -0.02743212   -0.00169575
     atom   12 type  1   force =    -0.00000007   -0.02743212   -0.00169575
     atom   13 type  1   force =     0.00000000    0.00000000    0.00628916
     atom   14 type  1   force =     0.00000000    0.00000000    0.00628937
     atom   15 type  1   force =     0.00000000    0.00000000    0.00281132
     atom   16 type  1   force =     0.00000000    0.00000000    0.00281878
     atom   17 type  2   force =     0.00000000    0.00000000    0.00000000
     atom   18 type  2   force =     0.00000000    0.00000000    0.00000000
     atom   19 type  1   force =     0.00000079   -0.02844900    0.00000000
     atom   20 type  1   force =    -0.00000079   -0.02844900    0.00000000
     atom   21 type  2   force =    -0.00000150    0.00000000    0.00000000
     atom   22 type  2   force =     0.00000150    0.00000000    0.00000000
     atom   23 type  1   force =     0.00000079    0.02844900    0.00000000
     atom   24 type  1   force =    -0.00000079    0.02844900    0.00000000
     atom   25 type  1   force =     0.00000000    0.00000000   -0.00281132
     atom   26 type  1   force =     0.00000000    0.00000000   -0.00281878
     atom   27 type  1   force =     0.00000000    0.00000000   -0.00628916
     atom   28 type  1   force =     0.00000000    0.00000000   -0.00628937
     atom   29 type  2   force =    -0.00000016    0.00000000    0.00159792
     atom   30 type  2   force =     0.00000016    0.00000000    0.00159792
     atom   31 type  1   force =     0.00000007    0.02743212    0.00169575
     atom   32 type  1   force =    -0.00000007    0.02743212    0.00169575
     atom   33 type  2   force =     0.00000000    0.00000000   -0.00871573
     atom   34 type  2   force =     0.00000000    0.00000000   -0.00872074
     atom   35 type  1   force =     0.00000007   -0.02743212    0.00169575
     atom   36 type  1   force =    -0.00000007   -0.02743212    0.00169575
     atom   37 type  1   force =     0.00000000    0.00000000   -0.06472611
     atom   38 type  1   force =     0.00000000    0.00000000   -0.06472692
     atom   39 type  1   force =     0.00000000    0.00000000    0.01766772
     atom   40 type  1   force =     0.00000000    0.00000000    0.01767093
     atom   41 type  3   force =     0.00000000    0.06524901   -0.03310159
     atom   42 type  3   force =     0.00000000    0.06524901    0.03310159
     atom   43 type  3   force =     0.00000000    0.06524889   -0.03310160
     atom   44 type  3   force =     0.00000000    0.06524889    0.03310160
     atom   45 type  3   force =     0.00000000   -0.06524901   -0.03310159
     atom   46 type  3   force =     0.00000000   -0.06524901    0.03310159
     atom   47 type  3   force =     0.00000000   -0.06524889   -0.03310160
     atom   48 type  3   force =     0.00000000   -0.06524889    0.03310160
     The non-local contrib.  to forces
     atom    1 type  1   force =     0.00000000    0.00000000    1.05251556
     atom    2 type  1   force =     0.00000000    0.00000000    1.05252714
     atom    3 type  1   force =     0.00000000    0.00000000   -1.53687869
     atom    4 type  1   force =     0.00000000    0.00000000   -1.53687639
     atom    5 type  2   force =    -0.00000017   -0.00000000    0.02533037
     atom    6 type  2   force =     0.00000017    0.00000000    0.02533037
     atom    7 type  1   force =    -0.00000033    0.00850308   -0.04663565
     atom    8 type  1   force =     0.00000033    0.00850308   -0.04663565
     atom    9 type  2   force =     0.00000000    0.00000000   -0.00392658
     atom   10 type  2   force =     0.00000000    0.00000000   -0.00391656
     atom   11 type  1   force =    -0.00000033   -0.00850308   -0.04663565
     atom   12 type  1   force =     0.00000033   -0.00850308   -0.04663565
     atom   13 type  1   force =     0.00000000    0.00000000   -0.21657731
     atom   14 type  1   force =     0.00000000    0.00000000   -0.21657612
     atom   15 type  1   force =     0.00000000    0.00000000    0.18759078
     atom   16 type  1   force =     0.00000000    0.00000000    0.18757576
     atom   17 type  2   force =     0.00000000    0.00000000    0.00000000
     atom   18 type  2   force =     0.00000000    0.00000000    0.00000000
     atom   19 type  1   force =    -0.00001623   -0.00980107    0.00000000
     atom   20 type  1   force =     0.00001623   -0.00980107    0.00000000
     atom   21 type  2   force =     0.00001270    0.00000000    0.00000000
     atom   22 type  2   force =    -0.00001270    0.00000000    0.00000000
     atom   23 type  1   force =    -0.00001623    0.00980107    0.00000000
     atom   24 type  1   force =     0.00001623    0.00980107    0.00000000
     atom   25 type  1   force =     0.00000000    0.00000000   -0.18759078
     atom   26 type  1   force =     0.00000000    0.00000000   -0.18757576
     atom   27 type  1   force =     0.00000000    0.00000000    0.21657731
     atom   28 type  1   force =     0.00000000    0.00000000    0.21657612
     atom   29 type  2   force =    -0.00000017    0.00000000   -0.02533037
     atom   30 type  2   force =     0.00000017   -0.00000000   -0.02533037
     atom   31 type  1   force =    -0.00000033    0.00850308    0.04663565
     atom   32 type  1   force =     0.00000033    0.00850308    0.04663565
     atom   33 type  2   force =     0.00000000    0.00000000    0.00392658
     atom   34 type  2   force =     0.00000000    0.00000000    0.00391656
     atom   35 type  1   force =    -0.00000033   -0.00850308    0.04663565
     atom   36 type  1   force =     0.00000033   -0.00850308    0.04663565
     atom   37 type  1   force =     0.00000000    0.00000000    1.53687869
     atom   38 type  1   force =     0.00000000    0.00000000    1.53687639
     atom   39 type  1   force =     0.00000000    0.00000000   -1.05251556
     atom   40 type  1   force =     0.00000000    0.00000000   -1.05252714
     atom   41 type  3   force =     0.00000000   -0.10044979    0.07328533
     atom   42 type  3   force =    -0.00000000   -0.10044979   -0.07328533
     atom   43 type  3   force =     0.00000000   -0.10044980    0.07328534
     atom   44 type  3   force =    -0.00000000   -0.10044980   -0.07328534
     atom   45 type  3   force =     0.00000000    0.10044979    0.07328533
     atom   46 type  3   force =     0.00000000    0.10044979   -0.07328533
     atom   47 type  3   force =     0.00000000    0.10044980    0.07328534
     atom   48 type  3   force =     0.00000000    0.10044980   -0.07328534
     The ionic contribution  to forces
     atom    1 type  1   force =    -0.00000000    0.00000017  -97.49670805
     atom    2 type  1   force =    -0.00000000    0.00000017  -97.49669878
     atom    3 type  1   force =    -0.00000000   -0.00000023  -86.64011245
     atom    4 type  1   force =     0.00000000   -0.00000023  -86.64010315
     atom    5 type  2   force =     0.00006456   -0.00000247 -162.96400689
     atom    6 type  2   force =    -0.00006456   -0.00000247 -162.96400689
     atom    7 type  1   force =     0.00003962   -0.43864132  -62.01555778
     atom    8 type  1   force =    -0.00003962   -0.43864132  -62.01555778
     atom    9 type  2   force =    -0.00000000    0.00000290 -166.78513920
     atom   10 type  2   force =    -0.00000000    0.00000290 -166.78393696
     atom   11 type  1   force =     0.00003962    0.43864170  -62.01555537
     atom   12 type  1   force =    -0.00003962    0.43864170  -62.01555537
     atom   13 type  1   force =    -0.00000000   -0.00000145  -37.07685049
     atom   14 type  1   force =    -0.00000000   -0.00000145  -37.07681080
     atom   15 type  1   force =     0.00000000    0.00000975  -26.80943731
     atom   16 type  1   force =    -0.00000000    0.00000975  -26.80904477
     atom   17 type  2   force =    -0.00000000    0.00002043   -0.00048617
     atom   18 type  2   force =     0.00000000    0.00002043   -0.00048617
     atom   19 type  1   force =     0.00017024    1.14678993   -0.00008401
     atom   20 type  1   force =    -0.00017024    1.14678993   -0.00008401
     atom   21 type  2   force =     0.00009588    0.00011397   -0.00025695
     atom   22 type  2   force =    -0.00009588    0.00011397   -0.00025695
     atom   23 type  1   force =     0.00017024   -1.14694237   -0.00008401
     atom   24 type  1   force =    -0.00017024   -1.14694237   -0.00008401
     atom   25 type  1   force =     0.00000000    0.00000975   26.80927335
     atom   26 type  1   force =    -0.00000000    0.00000975   26.80888077
     atom   27 type  1   force =     0.00000000   -0.00000145   37.07714329
     atom   28 type  1   force =     0.00000000   -0.00000145   37.07710361
     atom   29 type  2   force =     0.00006456   -0.00000247  162.96434345
     atom   30 type  2   force =    -0.00006456   -0.00000247  162.96434345
     atom   31 type  1   force =     0.00003962   -0.43866357   62.01563354
     atom   32 type  1   force =    -0.00003962   -0.43866357   62.01563354
     atom   33 type  2   force =    -0.00000000    0.00000290  166.78531085
     atom   34 type  2   force =    -0.00000000    0.00000290  166.78410860
     atom   35 type  1   force =     0.00003962    0.43866395   62.01563114
     atom   36 type  1   force =    -0.00003962    0.43866395   62.01563114
     atom   37 type  1   force =    -0.00000000   -0.00000023   86.64005923
     atom   38 type  1   force =    -0.00000000   -0.00000023   86.64004993
     atom   39 type  1   force =    -0.00000000    0.00000017   97.49677581
     atom   40 type  1   force =     0.00000000    0.00000017   97.49676654
     atom   41 type  3   force =    -0.00000000    2.69289205  -16.81244121
     atom   42 type  3   force =     0.00000000    2.69314268   16.81249524
     atom   43 type  3   force =    -0.00000000    2.69289507  -16.81244009
     atom   44 type  3   force =     0.00000000    2.69314570   16.81249411
     atom   45 type  3   force =     0.00000000   -2.69289208  -16.81244118
     atom   46 type  3   force =     0.00000000   -2.69314272   16.81249521
     atom   47 type  3   force =    -0.00000000   -2.69289510  -16.81244006
     atom   48 type  3   force =     0.00000000   -2.69314573   16.81249408
     The local contribution  to forces
     atom    1 type  1   force =    -0.00000000    0.00000000   96.31026139
     atom    2 type  1   force =     0.00000000    0.00000000   96.31024252
     atom    3 type  1   force =    -0.00000000    0.00000000   88.34894766
     atom    4 type  1   force =     0.00000000    0.00000000   88.34893791
     atom    5 type  2   force =    -0.00005921   -0.00000000  162.99935753
     atom    6 type  2   force =     0.00005921    0.00000000  162.99935753
     atom    7 type  1   force =    -0.00003324    0.48494946   62.04804068
     atom    8 type  1   force =     0.00003324    0.48494946   62.04804068
     atom    9 type  2   force =    -0.00000000    0.00000000  166.71862560
     atom   10 type  2   force =     0.00000000    0.00000000  166.71740202
     atom   11 type  1   force =    -0.00003324   -0.48494946   62.04804068
     atom   12 type  1   force =     0.00003324   -0.48494946   62.04804068
     atom   13 type  1   force =    -0.00000000    0.00000000   37.30365518
     atom   14 type  1   force =     0.00000000    0.00000000   37.30361134
     atom   15 type  1   force =    -0.00000000    0.00000000   26.62238755
     atom   16 type  1   force =     0.00000000    0.00000000   26.62201183
     atom   17 type  2   force =    -0.00000000    0.00000000   -0.00576393
     atom   18 type  2   force =     0.00000000    0.00000000   -0.00576392
     atom   19 type  1   force =    -0.00015433   -1.16427513   -0.00242284
     atom   20 type  1   force =     0.00015433   -1.16427513   -0.00242284
     atom   21 type  2   force =    -0.00010979   -0.00000000   -0.00599875
     atom   22 type  2   force =     0.00010979    0.00000000   -0.00599875
     atom   23 type  1   force =    -0.00015433    1.16391193   -0.00242284
     atom   24 type  1   force =     0.00015433    1.16391193   -0.00242284
     atom   25 type  1   force =    -0.00000000    0.00000000  -26.62415161
     atom   26 type  1   force =     0.00000000    0.00000000  -26.62377593
     atom   27 type  1   force =     0.00000000    0.00000000  -37.30541049
     atom   28 type  1   force =    -0.00000000   -0.00000000  -37.30536664
     atom   29 type  2   force =    -0.00005921    0.00000000 -163.00531581
     atom   30 type  2   force =     0.00005921   -0.00000000 -163.00531581
     atom   31 type  1   force =    -0.00003324    0.48501042  -62.05044705
     atom   32 type  1   force =     0.00003324    0.48501042  -62.05044705
     atom   33 type  2   force =    -0.00000000   -0.00000000 -166.72433918
     atom   34 type  2   force =     0.00000000    0.00000000 -166.72311562
     atom   35 type  1   force =    -0.00003324   -0.48501042  -62.05044705
     atom   36 type  1   force =     0.00003324   -0.48501042  -62.05044705
     atom   37 type  1   force =    -0.00000000    0.00000000  -88.35261495
     atom   38 type  1   force =     0.00000000    0.00000000  -88.35260520
     atom   39 type  1   force =     0.00000000    0.00000000  -96.31169694
     atom   40 type  1   force =     0.00000000    0.00000000  -96.31167808
     atom   41 type  3   force =     0.00000000   -2.50947727   16.73737117
     atom   42 type  3   force =     0.00000000   -2.50947727  -16.73737117
     atom   43 type  3   force =     0.00000000   -2.50948011   16.73737124
     atom   44 type  3   force =     0.00000000   -2.50948011  -16.73737124
     atom   45 type  3   force =    -0.00000000    2.50947727   16.73737117
     atom   46 type  3   force =    -0.00000000    2.50947727  -16.73737117
     atom   47 type  3   force =    -0.00000000    2.50948011   16.73737124
     atom   48 type  3   force =    -0.00000000    2.50948011  -16.73737124
     The core correction contribution to forces
     atom    1 type  1   force =    -0.00000000   -0.00000000   -0.00912043
     atom    2 type  1   force =    -0.00000000    0.00000000   -0.00912065
     atom    3 type  1   force =     0.00000000   -0.00000000    0.01326440
     atom    4 type  1   force =    -0.00000000   -0.00000000    0.01326437
     atom    5 type  2   force =     0.00000000    0.00000000    0.00000000
     atom    6 type  2   force =     0.00000000    0.00000000    0.00000000
     atom    7 type  1   force =     0.00000001   -0.00080154    0.00047210
     atom    8 type  1   force =    -0.00000001   -0.00080154    0.00047210
     atom    9 type  2   force =     0.00000000    0.00000000    0.00000000
     atom   10 type  2   force =     0.00000000    0.00000000    0.00000000
     atom   11 type  1   force =     0.00000001    0.00080154    0.00047210
     atom   12 type  1   force =    -0.00000001    0.00080154    0.00047210
     atom   13 type  1   force =     0.00000000   -0.00000000    0.00300053
     atom   14 type  1   force =    -0.00000000    0.00000000    0.00300052
     atom   15 type  1   force =     0.00000000   -0.00000000   -0.00230764
     atom   16 type  1   force =     0.00000000   -0.00000000   -0.00230720
     atom   17 type  2   force =     0.00000000    0.00000000    0.00000000
     atom   18 type  2   force =     0.00000000    0.00000000    0.00000000
     atom   19 type  1   force =     0.00000015    0.00067565   -0.00000194
     atom   20 type  1   force =    -0.00000015    0.00067565   -0.00000194
     atom   21 type  2   force =     0.00000000    0.00000000    0.00000000
     atom   22 type  2   force =     0.00000000    0.00000000    0.00000000
     atom   23 type  1   force =     0.00000015   -0.00067624   -0.00000194
     atom   24 type  1   force =    -0.00000015   -0.00067624   -0.00000194
     atom   25 type  1   force =     0.00000000    0.00000000    0.00230554
     atom   26 type  1   force =     0.00000000    0.00000000    0.00230510
     atom   27 type  1   force =    -0.00000000   -0.00000000   -0.00300250
     atom   28 type  1   force =    -0.00000000    0.00000000   -0.00300250
     atom   29 type  2   force =     0.00000000    0.00000000    0.00000000
     atom   30 type  2   force =     0.00000000    0.00000000    0.00000000
     atom   31 type  1   force =     0.00000001   -0.00080127   -0.00047364
     atom   32 type  1   force =    -0.00000001   -0.00080127   -0.00047364
     atom   33 type  2   force =     0.00000000    0.00000000    0.00000000
     atom   34 type  2   force =     0.00000000    0.00000000    0.00000000
     atom   35 type  1   force =     0.00000001    0.00080127   -0.00047364
     atom   36 type  1   force =    -0.00000001    0.00080127   -0.00047364
     atom   37 type  1   force =    -0.00000000   -0.00000000   -0.01326859
     atom   38 type  1   force =    -0.00000000    0.00000000   -0.01326856
     atom   39 type  1   force =    -0.00000000    0.00000000    0.00911825
     atom   40 type  1   force =    -0.00000000    0.00000000    0.00911847
     atom   41 type  3   force =     0.00000000    0.00000000    0.00000000
     atom   42 type  3   force =     0.00000000    0.00000000    0.00000000
     atom   43 type  3   force =     0.00000000    0.00000000    0.00000000
     atom   44 type  3   force =     0.00000000    0.00000000    0.00000000
     atom   45 type  3   force =     0.00000000    0.00000000    0.00000000
     atom   46 type  3   force =     0.00000000    0.00000000    0.00000000
     atom   47 type  3   force =     0.00000000    0.00000000    0.00000000
     atom   48 type  3   force =     0.00000000    0.00000000    0.00000000
     The Hubbard contrib.    to forces
     atom    1 type  1   force =     0.00000000    0.00000000    0.00000000
     atom    2 type  1   force =     0.00000000    0.00000000    0.00000000
     atom    3 type  1   force =     0.00000000    0.00000000    0.00000000
     atom    4 type  1   force =     0.00000000    0.00000000    0.00000000
     atom    5 type  2   force =     0.00000000    0.00000000    0.00000000
     atom    6 type  2   force =     0.00000000    0.00000000    0.00000000
     atom    7 type  1   force =     0.00000000    0.00000000    0.00000000
     atom    8 type  1   force =     0.00000000    0.00000000    0.00000000
     atom    9 type  2   force =     0.00000000    0.00000000    0.00000000
     atom   10 type  2   force =     0.00000000    0.00000000    0.00000000
     atom   11 type  1   force =     0.00000000    0.00000000    0.00000000
     atom   12 type  1   force =     0.00000000    0.00000000    0.00000000
     atom   13 type  1   force =     0.00000000    0.00000000    0.00000000
     atom   14 type  1   force =     0.00000000    0.00000000    0.00000000
     atom   15 type  1   force =     0.00000000    0.00000000    0.00000000
     atom   16 type  1   force =     0.00000000    0.00000000    0.00000000
     atom   17 type  2   force =     0.00000000    0.00000000    0.00000000
     atom   18 type  2   force =     0.00000000    0.00000000    0.00000000
     atom   19 type  1   force =     0.00000000    0.00000000    0.00000000
     atom   20 type  1   force =     0.00000000    0.00000000    0.00000000
     atom   21 type  2   force =     0.00000000    0.00000000    0.00000000
     atom   22 type  2   force =     0.00000000    0.00000000    0.00000000
     atom   23 type  1   force =     0.00000000    0.00000000    0.00000000
     atom   24 type  1   force =     0.00000000    0.00000000    0.00000000
     atom   25 type  1   force =     0.00000000    0.00000000    0.00000000
     atom   26 type  1   force =     0.00000000    0.00000000    0.00000000
     atom   27 type  1   force =     0.00000000    0.00000000    0.00000000
     atom   28 type  1   force =     0.00000000    0.00000000    0.00000000
     atom   29 type  2   force =     0.00000000    0.00000000    0.00000000
     atom   30 type  2   force =     0.00000000    0.00000000    0.00000000
     atom   31 type  1   force =     0.00000000    0.00000000    0.00000000
     atom   32 type  1   force =     0.00000000    0.00000000    0.00000000
     atom   33 type  2   force =     0.00000000    0.00000000    0.00000000
     atom   34 type  2   force =     0.00000000    0.00000000    0.00000000
     atom   35 type  1   force =     0.00000000    0.00000000    0.00000000
     atom   36 type  1   force =     0.00000000    0.00000000    0.00000000
     atom   37 type  1   force =     0.00000000    0.00000000    0.00000000
     atom   38 type  1   force =     0.00000000    0.00000000    0.00000000
     atom   39 type  1   force =     0.00000000    0.00000000    0.00000000
     atom   40 type  1   force =     0.00000000    0.00000000    0.00000000
     atom   41 type  3   force =     0.00000000    0.00000000    0.00000000
     atom   42 type  3   force =     0.00000000    0.00000000    0.00000000
     atom   43 type  3   force =     0.00000000    0.00000000    0.00000000
     atom   44 type  3   force =     0.00000000    0.00000000    0.00000000
     atom   45 type  3   force =     0.00000000    0.00000000    0.00000000
     atom   46 type  3   force =     0.00000000    0.00000000    0.00000000
     atom   47 type  3   force =     0.00000000    0.00000000    0.00000000
     atom   48 type  3   force =     0.00000000    0.00000000    0.00000000
     The SCF correction term to forces
     atom    1 type  1   force =     0.00000000   -0.00000001   -0.00000610
     atom    2 type  1   force =    -0.00000000   -0.00000001   -0.00000981
     atom    3 type  1   force =     0.00000000    0.00000002   -0.00001185
     atom    4 type  1   force =    -0.00000000    0.00000002   -0.00001004
     atom    5 type  2   force =    -0.00000603    0.00000008   -0.00000815
     atom    6 type  2   force =     0.00000603    0.00000008   -0.00000815
     atom    7 type  1   force =    -0.00000622    0.00000634   -0.00000615
     atom    8 type  1   force =     0.00000622    0.00000634   -0.00000615
     atom    9 type  2   force =     0.00000000   -0.00000008   -0.00003073
     atom   10 type  2   force =    -0.00000000   -0.00000008   -0.00001298
     atom   11 type  1   force =    -0.00000622   -0.00000636   -0.00000616
     atom   12 type  1   force =     0.00000622   -0.00000636   -0.00000616
     atom   13 type  1   force =    -0.00000000    0.00000003    0.00000202
     atom   14 type  1   force =     0.00000000    0.00000003    0.00000536
     atom   15 type  1   force =    -0.00000000   -0.00000004   -0.00000612
     atom   16 type  1   force =     0.00000000   -0.00000004   -0.00000066
     atom   17 type  2   force =    -0.00000000    0.00000011    0.00000905
     atom   18 type  2   force =     0.00000000    0.00000011    0.00000905
     atom   19 type  1   force =     0.00000094   -0.00000368    0.00000324
     atom   20 type  1   force =    -0.00000094   -0.00000368    0.00000324
     atom   21 type  2   force =    -0.00000034   -0.00000013    0.00000850
     atom   22 type  2   force =     0.00000034   -0.00000013    0.00000850
     atom   23 type  1   force =     0.00000094    0.00000372    0.00000324
     atom   24 type  1   force =    -0.00000094    0.00000372    0.00000324
     atom   25 type  1   force =    -0.00000000   -0.00000004    0.00001053
     atom   26 type  1   force =     0.00000000   -0.00000004    0.00000507
     atom   27 type  1   force =    -0.00000000    0.00000003    0.00000061
     atom   28 type  1   force =     0.00000000    0.00000003   -0.00000273
     atom   29 type  2   force =    -0.00000603    0.00000008    0.00000512
     atom   30 type  2   force =     0.00000603    0.00000008    0.00000512
     atom   31 type  1   force =    -0.00000622    0.00000600    0.00000483
     atom   32 type  1   force =     0.00000622    0.00000600    0.00000483
     atom   33 type  2   force =    -0.00000000   -0.00000008    0.00002642
     atom   34 type  2   force =     0.00000000   -0.00000008    0.00000867
     atom   35 type  1   force =    -0.00000622   -0.00000602    0.00000484
     atom   36 type  1   force =     0.00000622   -0.00000602    0.00000484
     atom   37 type  1   force =    -0.00000000    0.00000002    0.00000864
     atom   38 type  1   force =     0.00000000    0.00000002    0.00000682
     atom   39 type  1   force =    -0.00000000   -0.00000001    0.00000324
     atom   40 type  1   force =     0.00000000   -0.00000001    0.00000694
     atom   41 type  3   force =     0.00000000    0.00000084   -0.00000170
     atom   42 type  3   force =    -0.00000000    0.00000085    0.00000132
     atom   43 type  3   force =    -0.00000000    0.00000047   -0.00000197
     atom   44 type  3   force =     0.00000000    0.00000049    0.00000159
     atom   45 type  3   force =     0.00000000   -0.00000083   -0.00000170
     atom   46 type  3   force =     0.00000000   -0.00000085    0.00000132
     atom   47 type  3   force =    -0.00000000   -0.00000047   -0.00000197
     atom   48 type  3   force =    -0.00000000   -0.00000049    0.00000159

     Total force =     0.265738     Total SCF correction =     0.000065

     BFGS Geometry Optimization
     Energy error            =      0.0E+00 Ry
     Gradient error          =      6.5E-02 Ry/Bohr

     number of scf cycles    =   1
     number of bfgs steps    =   0

     energy             new  =   -3437.5382838467 Ry

     new trust radius        =       0.0731652159 bohr
     new conv_thr            =       0.0000000010 Ry


ATOMIC_POSITIONS (crystal)
O             0.0000000000        0.5000000000        0.2707458526
O             0.5000000000        0.5000000000        0.2707461590
O             0.0000000000        0.0000000000        0.2896424037
O             0.5000000000        0.0000000000        0.2896424311
Ru            0.2499999554        0.0000000000        0.3608489811
Ru            0.7500000446        0.0000000000        0.3608489811
O             0.2500002420        0.3046781898        0.3556077350
O             0.7499997580        0.3046781898        0.3556077350
Ru            0.0000000000        0.5000000000        0.3514542118
Ru            0.5000000000        0.5000000000        0.3514546981
O             0.2500002420        0.6953218102        0.3556077350
O             0.7499997580        0.6953218102        0.3556077350
O             0.0000000000        0.0000000000        0.4131510693
O             0.5000000000        0.0000000000        0.4131511068
O             0.0000000000        0.5000000000        0.4430719267
O             0.5000000000        0.5000000000        0.4430744847
Ru            0.0000000000        0.0000000000        0.5000010000
Ru            0.5000000000        0.0000000000        0.5000010000
O             0.2499995195        0.1930197383        0.5000010000
O             0.7500004805        0.1930197383        0.5000010000
Ru            0.2499970701        0.5000000000        0.5000010000
Ru            0.7500029299        0.5000000000        0.5000010000
O             0.2499995195        0.8069812617        0.5000010000
O             0.7500004805        0.8069812617        0.5000010000
O             0.0000000000        0.5000000000        0.5569290733
O             0.5000000000        0.5000000000        0.5569265153
O             0.0000000000        0.0000000000        0.5868499307
O             0.5000000000        0.0000000000        0.5868498932
Ru            0.2499999554        0.0000000000        0.6391520189
Ru            0.7500000446        0.0000000000        0.6391520189
O             0.2500002420        0.3046781898        0.6443932650
O             0.7499997580        0.3046781898        0.6443932650
Ru            0.0000000000        0.5000000000        0.6485467882
Ru            0.5000000000        0.5000000000        0.6485463019
O             0.2500002420        0.6953218102        0.6443932650
O             0.7499997580        0.6953218102        0.6443932650
O             0.0000000000        0.0000000000        0.7103595963
O             0.5000000000        0.0000000000        0.7103595689
O             0.0000000000        0.5000000000        0.7292551474
O             0.5000000000        0.5000000000        0.7292548410
H             0.0000000000        0.1273493473        0.2616577772
H             0.0000000000        0.1273493473        0.7383422228
H             0.5000000000        0.1273493469        0.2616577902
H             0.5000000000        0.1273493469        0.7383422098
H             0.0000000000        0.8726506527        0.2616577772
H             0.0000000000        0.8726506527        0.7383422228
H             0.5000000000        0.8726506531        0.2616577902
H             0.5000000000        0.8726506531        0.7383422098



     Writing config-only to output data dir /storage/home/mgm6007/ixd4/Maria/Strain0_Files/RuO2-110-0-2345/RuO2-110-0-2345.save/
     NEW-OLD atomic charge density approx. for the potential

     Check: negative core charge=   -0.000001

     negative rho (up, down):  1.015E-04 0.000E+00

     add environment contribution to local potential
     Polarization accuracy = 7.2E-12, # of iterations =  34

     total cpu time spent up to now is    13741.9 secs

     per-process dynamical memory:   211.8 Mb

     Self-consistent Calculation

     iteration #  1     ecut=    50.00 Ry     beta= 0.70
     Davidson diagonalization with overlap
     ethr =  1.00E-06,  avg # of iterations =  8.0

     negative rho (up, down):  6.309E-04 0.000E+00

     add environment contribution to local potential
     Polarization accuracy = 8.8E-12, # of iterations =  35

     total cpu time spent up to now is    14060.0 secs

     total energy              =   -3437.55228748 Ry
     estimated scf accuracy    <       0.03776727 Ry
     electrostatic embedding   =      -0.10806260 Ry
     cavitation energy         =       0.02067379 Ry
     PV energy                 =      -0.08458223 Ry
     correction to one-el term =     167.42150768 Ry

     iteration #  2     ecut=    50.00 Ry     beta= 0.70
     Davidson diagonalization with overlap
     ethr =  1.03E-05,  avg # of iterations =  2.0

     negative rho (up, down):  5.692E-04 0.000E+00

     add environment contribution to local potential
     Polarization accuracy = 9.2E-12, # of iterations =  35

     total cpu time spent up to now is    14345.2 secs

     total energy              =   -3437.55443505 Ry
     estimated scf accuracy    <       0.05696485 Ry
     electrostatic embedding   =      -0.10850303 Ry
     cavitation energy         =       0.02075741 Ry
     PV energy                 =      -0.08449190 Ry
     correction to one-el term =     167.98621479 Ry

     iteration #  3     ecut=    50.00 Ry     beta= 0.70
     Davidson diagonalization with overlap
     ethr =  1.03E-05,  avg # of iterations =  1.0

     negative rho (up, down):  6.073E-04 0.000E+00

     add environment contribution to local potential
     Polarization accuracy = 1.1E-12, # of iterations =  36

     total cpu time spent up to now is    14661.8 secs

     total energy              =   -3437.55579795 Ry
     estimated scf accuracy    <       0.00633534 Ry
     electrostatic embedding   =      -0.10848489 Ry
     cavitation energy         =       0.02075025 Ry
     PV energy                 =      -0.08451853 Ry
     correction to one-el term =     167.91056838 Ry

     iteration #  4     ecut=    50.00 Ry     beta= 0.70
     Davidson diagonalization with overlap
     ethr =  1.72E-06,  avg # of iterations =  2.0

     negative rho (up, down):  5.191E-04 0.000E+00

     add environment contribution to local potential
     Polarization accuracy = 9.3E-13, # of iterations =  36

     total cpu time spent up to now is    14978.5 secs

     total energy              =   -3437.55593102 Ry
     estimated scf accuracy    <       0.00443949 Ry
     electrostatic embedding   =      -0.10934949 Ry
     cavitation energy         =       0.02074776 Ry
     PV energy                 =      -0.08453381 Ry
     correction to one-el term =     167.93822240 Ry

     iteration #  5     ecut=    50.00 Ry     beta= 0.70
     Davidson diagonalization with overlap
     ethr =  1.21E-06,  avg # of iterations =  1.0

     negative rho (up, down):  3.938E-04 0.000E+00

     add environment contribution to local potential
     Polarization accuracy = 9.5E-12, # of iterations =  35

     total cpu time spent up to now is    15286.8 secs

     total energy              =   -3437.55609686 Ry
     estimated scf accuracy    <       0.00066777 Ry
     electrostatic embedding   =      -0.10973394 Ry
     cavitation energy         =       0.02074400 Ry
     PV energy                 =      -0.08454869 Ry
     correction to one-el term =     167.87767970 Ry

     iteration #  6     ecut=    50.00 Ry     beta= 0.70
     Davidson diagonalization with overlap
     ethr =  1.81E-07,  avg # of iterations =  2.0

     negative rho (up, down):  2.269E-04 0.000E+00

     add environment contribution to local potential
     Polarization accuracy = 7.8E-12, # of iterations =  35

     total cpu time spent up to now is    15536.3 secs

     total energy              =   -3437.55612567 Ry
     estimated scf accuracy    <       0.00020438 Ry
     electrostatic embedding   =      -0.11024695 Ry
     cavitation energy         =       0.02074018 Ry
     PV energy                 =      -0.08456109 Ry
     correction to one-el term =     167.78912175 Ry

     iteration #  7     ecut=    50.00 Ry     beta= 0.70
     Davidson diagonalization with overlap
     ethr =  5.55E-08,  avg # of iterations =  2.0

     negative rho (up, down):  8.726E-05 0.000E+00

     add environment contribution to local potential
     Polarization accuracy = 6.5E-12, # of iterations =  35

     total cpu time spent up to now is    15753.9 secs

     total energy              =   -3437.55614692 Ry
     estimated scf accuracy    <       0.00009438 Ry
     electrostatic embedding   =      -0.11100381 Ry
     cavitation energy         =       0.02073676 Ry
     PV energy                 =      -0.08457034 Ry
     correction to one-el term =     167.65758423 Ry

     iteration #  8     ecut=    50.00 Ry     beta= 0.70
     Davidson diagonalization with overlap
     ethr =  2.56E-08,  avg # of iterations =  2.0

     negative rho (up, down):  1.802E-05 0.000E+00

     add environment contribution to local potential
     Polarization accuracy = 4.5E-12, # of iterations =  35

     total cpu time spent up to now is    16069.4 secs

     total energy              =   -3437.55614848 Ry
     estimated scf accuracy    <       0.00005020 Ry
     electrostatic embedding   =      -0.11169459 Ry
     cavitation energy         =       0.02073750 Ry
     PV energy                 =      -0.08456924 Ry
     correction to one-el term =     167.49978375 Ry

     iteration #  9     ecut=    50.00 Ry     beta= 0.70
     Davidson diagonalization with overlap
     ethr =  1.36E-08,  avg # of iterations =  2.0

     negative rho (up, down):  1.260E-05 0.000E+00

     add environment contribution to local potential
     Polarization accuracy = 4.8E-12, # of iterations =  36

     total cpu time spent up to now is    16318.3 secs

     total energy              =   -3437.55615182 Ry
     estimated scf accuracy    <       0.00000893 Ry
     electrostatic embedding   =      -0.11263809 Ry
     cavitation energy         =       0.02074243 Ry
     PV energy                 =      -0.08456155 Ry
     correction to one-el term =     167.29333175 Ry

     iteration # 10     ecut=    50.00 Ry     beta= 0.70
     Davidson diagonalization with overlap
     ethr =  2.43E-09,  avg # of iterations =  2.0

     negative rho (up, down):  1.649E-05 0.000E+00

     add environment contribution to local potential
     Polarization accuracy = 3.7E-12, # of iterations =  35

     total cpu time spent up to now is    16606.1 secs

     total energy              =   -3437.55615183 Ry
     estimated scf accuracy    <       0.00000329 Ry
     electrostatic embedding   =      -0.11299571 Ry
     cavitation energy         =       0.02074821 Ry
     PV energy                 =      -0.08455305 Ry
     correction to one-el term =     167.22576547 Ry

     iteration # 11     ecut=    50.00 Ry     beta= 0.70
     Davidson diagonalization with overlap
     ethr =  8.95E-10,  avg # of iterations =  1.0

     negative rho (up, down):  2.569E-05 0.000E+00

     add environment contribution to local potential
     Polarization accuracy = 5.2E-12, # of iterations =  35

     total cpu time spent up to now is    16905.4 secs

     total energy              =   -3437.55615249 Ry
     estimated scf accuracy    <       0.00000145 Ry
     electrostatic embedding   =      -0.11310620 Ry
     cavitation energy         =       0.02075200 Ry
     PV energy                 =      -0.08454647 Ry
     correction to one-el term =     167.21299180 Ry

     iteration # 12     ecut=    50.00 Ry     beta= 0.70
     Davidson diagonalization with overlap
[...]
     atom   35 type  1   force =     0.04754700    1.07585596   61.50474917
     atom   36 type  1   force =    -0.04754700    1.07585596   61.50474917
     atom   37 type  1   force =     0.00000000   -0.00000024   86.67841284
     atom   38 type  1   force =    -0.00000000   -0.00000024   86.65798697
     atom   39 type  1   force =    -0.00000000    0.00000017   96.81532105
     atom   40 type  1   force =    -0.00000000    0.00000017   96.82305913
     atom   41 type  3   force =     0.00000000    2.43041185  -16.48816080
     atom   42 type  3   force =     0.00000000    2.43062918   16.48819721
     atom   43 type  3   force =    -0.00000000    2.43569319  -16.48700225
     atom   44 type  3   force =    -0.00000000    2.43591040   16.48703832
     atom   45 type  3   force =     0.00000000   -2.43041188  -16.48816076
     atom   46 type  3   force =     0.00000000   -2.43062922   16.48819717
     atom   47 type  3   force =    -0.00000000   -2.43569323  -16.48700221
     atom   48 type  3   force =    -0.00000000   -2.43591043   16.48703829
     The local contribution  to forces
     atom    1 type  1   force =    -0.00000000    0.00000000   95.63574413
     atom    2 type  1   force =     0.00000000    0.00000000   95.62638605
     atom    3 type  1   force =     0.00000000    0.00000000   88.21830669
     atom    4 type  1   force =     0.00000000   -0.00000000   88.19871361
     atom    5 type  2   force =    -0.10000597    0.00000000  161.76958741
     atom    6 type  2   force =     0.10000597   -0.00000000  161.76958741
     atom    7 type  1   force =    -0.04682371    1.09181115   61.54972485
     atom    8 type  1   force =     0.04682371    1.09181115   61.54972485
     atom    9 type  2   force =    -0.00000000    0.00000000  167.41708373
     atom   10 type  2   force =     0.00000000    0.00000000  165.41736407
     atom   11 type  1   force =    -0.04682371   -1.09181115   61.54972485
     atom   12 type  1   force =     0.04682371   -1.09181115   61.54972485
     atom   13 type  1   force =    -0.00000000   -0.00000000   37.08182534
     atom   14 type  1   force =    -0.00000000    0.00000000   37.06654350
     atom   15 type  1   force =    -0.00000000    0.00000000   26.94847486
     atom   16 type  1   force =     0.00000000    0.00000000   26.43324781
     atom   17 type  2   force =    -0.00000000    0.00000000   -0.00578278
     atom   18 type  2   force =     0.00000000    0.00000000   -0.00577581
     atom   19 type  1   force =    -0.16240816   -2.11164045   -0.00242069
     atom   20 type  1   force =     0.16240816   -2.11164045   -0.00242069
     atom   21 type  2   force =     0.13646042   -0.00000000   -0.00598608
     atom   22 type  2   force =    -0.13646042   -0.00000000   -0.00598608
     atom   23 type  1   force =    -0.16240800    2.11127132   -0.00242069
     atom   24 type  1   force =     0.16240800    2.11127132   -0.00242069
     atom   25 type  1   force =    -0.00000000    0.00000000  -26.95022197
     atom   26 type  1   force =     0.00000000    0.00000000  -26.43504570
     atom   27 type  1   force =    -0.00000000    0.00000000  -37.08357418
     atom   28 type  1   force =    -0.00000000    0.00000000  -37.06829232
     atom   29 type  2   force =    -0.10000548   -0.00000000 -161.77552112
     atom   30 type  2   force =     0.10000548    0.00000000 -161.77552112
     atom   31 type  1   force =    -0.04682337    1.09187741  -61.55212744
     atom   32 type  1   force =     0.04682337    1.09187741  -61.55212744
     atom   33 type  2   force =    -0.00000000    0.00000000 -167.42280509
     atom   34 type  2   force =     0.00000000    0.00000000 -165.42312360
     atom   35 type  1   force =    -0.04682337   -1.09187741  -61.55212744
     atom   36 type  1   force =     0.04682337   -1.09187741  -61.55212744
     atom   37 type  1   force =    -0.00000000    0.00000000  -88.22197264
     atom   38 type  1   force =    -0.00000000   -0.00000000  -88.20238196
     atom   39 type  1   force =    -0.00000000    0.00000000  -95.63717762
     atom   40 type  1   force =     0.00000000    0.00000000  -95.62782928
     atom   41 type  3   force =    -0.00000000   -2.32347017   16.45518651
     atom   42 type  3   force =    -0.00000000   -2.32347017  -16.45518651
     atom   43 type  3   force =     0.00000000   -2.32878909   16.45435353
     atom   44 type  3   force =     0.00000000   -2.32878909  -16.45435353
     atom   45 type  3   force =     0.00000000    2.32347017   16.45518651
     atom   46 type  3   force =     0.00000000    2.32347017  -16.45518651
     atom   47 type  3   force =    -0.00000000    2.32878909   16.45435353
     atom   48 type  3   force =    -0.00000000    2.32878909  -16.45435353
     The core correction contribution to forces
     atom    1 type  1   force =    -0.00000000    0.00000000   -0.00948429
     atom    2 type  1   force =    -0.00000000    0.00000000   -0.00977497
     atom    3 type  1   force =     0.00000000   -0.00000000    0.01358132
     atom    4 type  1   force =    -0.00000000   -0.00000000    0.01359504
     atom    5 type  2   force =     0.00000000    0.00000000    0.00000000
     atom    6 type  2   force =     0.00000000    0.00000000    0.00000000
     atom    7 type  1   force =     0.00002370   -0.00051787    0.00057269
     atom    8 type  1   force =    -0.00002370   -0.00051787    0.00057269
     atom    9 type  2   force =     0.00000000    0.00000000    0.00000000
     atom   10 type  2   force =     0.00000000    0.00000000    0.00000000
     atom   11 type  1   force =     0.00002370    0.00051787    0.00057269
     atom   12 type  1   force =    -0.00002370    0.00051787    0.00057269
     atom   13 type  1   force =    -0.00000000   -0.00000000    0.00285631
     atom   14 type  1   force =     0.00000000   -0.00000000    0.00281816
     atom   15 type  1   force =    -0.00000000   -0.00000000   -0.00283529
     atom   16 type  1   force =    -0.00000000   -0.00000000   -0.00227327
     atom   17 type  2   force =     0.00000000    0.00000000    0.00000000
     atom   18 type  2   force =     0.00000000    0.00000000    0.00000000
     atom   19 type  1   force =     0.00019901    0.00017356   -0.00000188
     atom   20 type  1   force =    -0.00019901    0.00017356   -0.00000188
     atom   21 type  2   force =     0.00000000    0.00000000    0.00000000
     atom   22 type  2   force =     0.00000000    0.00000000    0.00000000
     atom   23 type  1   force =     0.00019901   -0.00017418   -0.00000188
     atom   24 type  1   force =    -0.00019901   -0.00017418   -0.00000188
     atom   25 type  1   force =     0.00000000    0.00000000    0.00283321
     atom   26 type  1   force =    -0.00000000    0.00000000    0.00227100
     atom   27 type  1   force =    -0.00000000   -0.00000000   -0.00285831
     atom   28 type  1   force =    -0.00000000   -0.00000000   -0.00282015
     atom   29 type  2   force =     0.00000000    0.00000000    0.00000000
     atom   30 type  2   force =     0.00000000    0.00000000    0.00000000
     atom   31 type  1   force =     0.00002371   -0.00051760   -0.00057421
     atom   32 type  1   force =    -0.00002371   -0.00051760   -0.00057421
     atom   33 type  2   force =     0.00000000    0.00000000    0.00000000
     atom   34 type  2   force =     0.00000000    0.00000000    0.00000000
     atom   35 type  1   force =     0.00002371    0.00051760   -0.00057421
     atom   36 type  1   force =    -0.00002371    0.00051760   -0.00057421
     atom   37 type  1   force =    -0.00000000   -0.00000000   -0.01358555
     atom   38 type  1   force =    -0.00000000   -0.00000000   -0.01359928
     atom   39 type  1   force =     0.00000000   -0.00000000    0.00948210
     atom   40 type  1   force =     0.00000000    0.00000000    0.00977255
     atom   41 type  3   force =     0.00000000    0.00000000    0.00000000
     atom   42 type  3   force =     0.00000000    0.00000000    0.00000000
     atom   43 type  3   force =     0.00000000    0.00000000    0.00000000
     atom   44 type  3   force =     0.00000000    0.00000000    0.00000000
     atom   45 type  3   force =     0.00000000    0.00000000    0.00000000
     atom   46 type  3   force =     0.00000000    0.00000000    0.00000000
     atom   47 type  3   force =     0.00000000    0.00000000    0.00000000
     atom   48 type  3   force =     0.00000000    0.00000000    0.00000000
     The Hubbard contrib.    to forces
     atom    1 type  1   force =     0.00000000    0.00000000    0.00000000
     atom    2 type  1   force =     0.00000000    0.00000000    0.00000000
     atom    3 type  1   force =     0.00000000    0.00000000    0.00000000
     atom    4 type  1   force =     0.00000000    0.00000000    0.00000000
     atom    5 type  2   force =     0.00000000    0.00000000    0.00000000
     atom    6 type  2   force =     0.00000000    0.00000000    0.00000000
     atom    7 type  1   force =     0.00000000    0.00000000    0.00000000
     atom    8 type  1   force =     0.00000000    0.00000000    0.00000000
     atom    9 type  2   force =     0.00000000    0.00000000    0.00000000
     atom   10 type  2   force =     0.00000000    0.00000000    0.00000000
     atom   11 type  1   force =     0.00000000    0.00000000    0.00000000
     atom   12 type  1   force =     0.00000000    0.00000000    0.00000000
     atom   13 type  1   force =     0.00000000    0.00000000    0.00000000
     atom   14 type  1   force =     0.00000000    0.00000000    0.00000000
     atom   15 type  1   force =     0.00000000    0.00000000    0.00000000
     atom   16 type  1   force =     0.00000000    0.00000000    0.00000000
     atom   17 type  2   force =     0.00000000    0.00000000    0.00000000
     atom   18 type  2   force =     0.00000000    0.00000000    0.00000000
     atom   19 type  1   force =     0.00000000    0.00000000    0.00000000
     atom   20 type  1   force =     0.00000000    0.00000000    0.00000000
     atom   21 type  2   force =     0.00000000    0.00000000    0.00000000
     atom   22 type  2   force =     0.00000000    0.00000000    0.00000000
     atom   23 type  1   force =     0.00000000    0.00000000    0.00000000
     atom   24 type  1   force =     0.00000000    0.00000000    0.00000000
     atom   25 type  1   force =     0.00000000    0.00000000    0.00000000
     atom   26 type  1   force =     0.00000000    0.00000000    0.00000000
     atom   27 type  1   force =     0.00000000    0.00000000    0.00000000
     atom   28 type  1   force =     0.00000000    0.00000000    0.00000000
     atom   29 type  2   force =     0.00000000    0.00000000    0.00000000
     atom   30 type  2   force =     0.00000000    0.00000000    0.00000000
     atom   31 type  1   force =     0.00000000    0.00000000    0.00000000
     atom   32 type  1   force =     0.00000000    0.00000000    0.00000000
     atom   33 type  2   force =     0.00000000    0.00000000    0.00000000
     atom   34 type  2   force =     0.00000000    0.00000000    0.00000000
     atom   35 type  1   force =     0.00000000    0.00000000    0.00000000
     atom   36 type  1   force =     0.00000000    0.00000000    0.00000000
     atom   37 type  1   force =     0.00000000    0.00000000    0.00000000
     atom   38 type  1   force =     0.00000000    0.00000000    0.00000000
     atom   39 type  1   force =     0.00000000    0.00000000    0.00000000
     atom   40 type  1   force =     0.00000000    0.00000000    0.00000000
     atom   41 type  3   force =     0.00000000    0.00000000    0.00000000
     atom   42 type  3   force =     0.00000000    0.00000000    0.00000000
     atom   43 type  3   force =     0.00000000    0.00000000    0.00000000
     atom   44 type  3   force =     0.00000000    0.00000000    0.00000000
     atom   45 type  3   force =     0.00000000    0.00000000    0.00000000
     atom   46 type  3   force =     0.00000000    0.00000000    0.00000000
     atom   47 type  3   force =     0.00000000    0.00000000    0.00000000
     atom   48 type  3   force =     0.00000000    0.00000000    0.00000000
     The SCF correction term to forces
     atom    1 type  1   force =     0.00000000    0.00000000    0.00000134
     atom    2 type  1   force =     0.00000000    0.00000000    0.00000086
     atom    3 type  1   force =     0.00000000   -0.00000000    0.00000291
     atom    4 type  1   force =    -0.00000000   -0.00000000    0.00000285
     atom    5 type  2   force =    -0.00000027   -0.00000000    0.00000372
     atom    6 type  2   force =     0.00000027   -0.00000000    0.00000372
     atom    7 type  1   force =    -0.00000052   -0.00000086    0.00000118
     atom    8 type  1   force =     0.00000052   -0.00000086    0.00000118
     atom    9 type  2   force =     0.00000000    0.00000000    0.00000291
     atom   10 type  2   force =    -0.00000000    0.00000000    0.00000348
     atom   11 type  1   force =    -0.00000052    0.00000086    0.00000118
     atom   12 type  1   force =     0.00000052    0.00000086    0.00000118
     atom   13 type  1   force =     0.00000000   -0.00000000   -0.00000033
     atom   14 type  1   force =    -0.00000000   -0.00000000   -0.00000024
     atom   15 type  1   force =    -0.00000000    0.00000000    0.00000016
     atom   16 type  1   force =    -0.00000000    0.00000000    0.00000125
     atom   17 type  2   force =     0.00000000   -0.00000000    0.00000011
     atom   18 type  2   force =    -0.00000000   -0.00000000    0.00000011
     atom   19 type  1   force =     0.00000005    0.00000005    0.00000004
     atom   20 type  1   force =    -0.00000005    0.00000005    0.00000004
     atom   21 type  2   force =     0.00000077    0.00000000    0.00000012
     atom   22 type  2   force =    -0.00000077    0.00000000    0.00000012
     atom   23 type  1   force =     0.00000005   -0.00000005    0.00000004
     atom   24 type  1   force =    -0.00000005   -0.00000005    0.00000004
     atom   25 type  1   force =    -0.00000000    0.00000000   -0.00000006
     atom   26 type  1   force =    -0.00000000    0.00000000   -0.00000115
     atom   27 type  1   force =    -0.00000000   -0.00000000    0.00000044
     atom   28 type  1   force =    -0.00000000   -0.00000000    0.00000035
     atom   29 type  2   force =    -0.00000027   -0.00000000   -0.00000343
     atom   30 type  2   force =     0.00000027   -0.00000000   -0.00000343
     atom   31 type  1   force =    -0.00000052   -0.00000085   -0.00000108
     atom   32 type  1   force =     0.00000052   -0.00000085   -0.00000108
     atom   33 type  2   force =     0.00000000    0.00000000   -0.00000263
     atom   34 type  2   force =    -0.00000000    0.00000000   -0.00000320
     atom   35 type  1   force =    -0.00000052    0.00000085   -0.00000108
     atom   36 type  1   force =     0.00000052    0.00000085   -0.00000108
     atom   37 type  1   force =     0.00000000   -0.00000000   -0.00000288
     atom   38 type  1   force =    -0.00000000   -0.00000000   -0.00000281
     atom   39 type  1   force =     0.00000000    0.00000000   -0.00000134
     atom   40 type  1   force =    -0.00000000    0.00000000   -0.00000086
     atom   41 type  3   force =     0.00000000    0.00000008    0.00000025
     atom   42 type  3   force =     0.00000000    0.00000007   -0.00000025
     atom   43 type  3   force =    -0.00000000    0.00000002    0.00000023
     atom   44 type  3   force =    -0.00000000    0.00000002   -0.00000024
     atom   45 type  3   force =     0.00000000   -0.00000008    0.00000025
     atom   46 type  3   force =     0.00000000   -0.00000007   -0.00000025
     atom   47 type  3   force =    -0.00000000   -0.00000002    0.00000023
     atom   48 type  3   force =    -0.00000000   -0.00000002   -0.00000024

     Total force =     0.001592     Total SCF correction =     0.000012
     Energy error            =      2.4E-05 Ry
     Gradient error          =      5.3E-04 Ry/Bohr

     number of scf cycles    =  41
     number of bfgs steps    =  40

     energy             old  =   -3437.5715867575 Ry
     energy             new  =   -3437.5716105763 Ry

     CASE: energy            _new < energy            _old

     new trust radius        =       0.0021029711 bohr
     new conv_thr            =            1.0E-11 Ry


ATOMIC_POSITIONS (crystal)
O             0.0000000000        0.5000000000        0.2684964002
O             0.5000000000        0.5000000000        0.2693010661
O             0.0000000000        0.0000000000        0.2878011031
O             0.5000000000        0.0000000000        0.2879186429
Ru            0.2498276671       -0.0000000000        0.3604437371
Ru            0.7501723329        0.0000000000        0.3604437371
O             0.2503676700        0.3059854252        0.3547701307
O             0.7496323300        0.3059854252        0.3547701307
Ru            0.0000000000        0.5000000000        0.3492748856
Ru            0.5000000000        0.5000000000        0.3500365284
O             0.2503676700        0.6940145748        0.3547701307
O             0.7496323300        0.6940145748        0.3547701307
O             0.0000000000        0.0000000000        0.4127507294
O             0.5000000000        0.0000000000        0.4127790807
O             0.0000000000        0.5000000000        0.4411839681
O             0.5000000000        0.5000000000        0.4448780350
Ru            0.0000000000        0.0000000000        0.5000010000
Ru            0.5000000000        0.0000000000        0.5000010000
O             0.2494538255        0.1906866158        0.5000010000
O             0.7505461745        0.1906866158        0.5000010000
Ru            0.2463058434        0.5000000000        0.5000010000
Ru            0.7536941566        0.5000000000        0.5000010000
O             0.2494538255        0.8093143842        0.5000010000
O             0.7505461745        0.8093143842        0.5000010000
O             0.0000000000        0.5000000000        0.5588170319
O             0.5000000000        0.5000000000        0.5551229650
O             0.0000000000        0.0000000000        0.5872502706
O             0.5000000000        0.0000000000        0.5872219193
Ru            0.2498276671        0.0000000000        0.6395572629
Ru            0.7501723329       -0.0000000000        0.6395572629
O             0.2503676700        0.3059854252        0.6452308693
O             0.7496323300        0.3059854252        0.6452308693
Ru            0.0000000000        0.5000000000        0.6507261144
Ru            0.5000000000        0.5000000000        0.6499644716
O             0.2503676700        0.6940145748        0.6452308693
O             0.7496323300        0.6940145748        0.6452308693
O             0.0000000000        0.0000000000        0.7122008969
O             0.5000000000        0.0000000000        0.7120833571
O             0.0000000000        0.5000000000        0.7315045998
O             0.5000000000        0.5000000000        0.7306999339
H             0.0000000000        0.1298203570        0.2623510687
H             0.0000000000        0.1298203570        0.7376489313
H             0.5000000000        0.1298714637        0.2624849737
H             0.5000000000        0.1298714637        0.7375150263
H            -0.0000000000        0.8701796430        0.2623510687
H             0.0000000000        0.8701796430        0.7376489313
H             0.5000000000        0.8701285363        0.2624849737
H             0.5000000000        0.8701285363        0.7375150263



     Writing config-only to output data dir /storage/home/mgm6007/ixd4/Maria/Strain0_Files/RuO2-110-0-2345/RuO2-110-0-2345.save/
     NEW-OLD atomic charge density approx. for the potential

     Check: negative core charge=   -0.000001

     negative rho (up, down):  1.042E-04 0.000E+00

     add environment contribution to local potential
     Polarization accuracy = 3.9E-12, # of iterations =  37
