
     Program PWSCF v.7.2 starts on 23Jul2023 at 14:20:45 
        Git branch: heads/qe-7.2
        Last git commit: b4c5e8deeb7d1863e7553a87b45f8d22c21926a5
        Last git commit date: Mon Mar 27 16:12:09 2023 +0000
        Last git commit subject: Merge branch 'merge_fix_hubbard' into 'develop'

     This program is part of the open-source Quantum ESPRESSO suite
     for quantum simulation of materials; please cite
         "P. Giannozzi et al., J. Phys.:Condens. Matter 21 395502 (2009);
         "P. Giannozzi et al., J. Phys.:Condens. Matter 29 465901 (2017);
         "P. Giannozzi et al., J. Chem. Phys. 152 154105 (2020);
          URL http://www.quantum-espresso.org", 
     in publications or presentations arising from this work. More details at
     http://www.quantum-espresso.org/quote

     Parallel version (MPI), running on    20 processors

     MPI processes distributed on     1 nodes
     104924 MiB available memory on the printing compute node when the environment starts
 
     Reading input from RuO2-110-0-035.in

     Current dimensions of program PWSCF are:
     Max number of different atomic species (ntypx) = 10
     Max number of k-points (npk) =  40000
     Max angular momentum in pseudopotentials (lmaxx) =  4
 
     Reading input from environ.in:
     * Environ restarting
     * setting up water environment
     * using electronic solvent mode
     * setting boundary derivatives method to SCCS default
     

     File /storage/home/mgm6007/ixd4/Maria/Strain2_Files/RuO2-110-0-035/RuO2-110-0-035.update deleted, as requested

     File /storage/home/mgm6007/ixd4/Maria/Strain2_Files/RuO2-110-0-035/RuO2-110-0-035.bfgs deleted, as requested
     file O.pbe-n-kjpaw_psl.0.1.UPF: wavefunction(s)  2P renormalized
     Message from routine setup:
     using ibrav=0 with symmetry is DISCOURAGED, use correct ibrav instead
 
     R & G space division:  proc/nbgrp/npool/nimage =      20
     Subspace diagonalization in iterative solution of the eigenvalue problem:
     one sub-group per band group will be used
     scalapack distributed-memory algorithm (size of sub-group:  2*  2 procs)

 
     Parallelization info
     --------------------
     sticks:   dense  smooth     PW     G-vecs:    dense   smooth      PW
     Min         279     111     29                55537    14039    1893
     Max         280     112     30                55546    14052    1904
     Sum        5595    2237    595              1110843   280917   37967
 
     Using Slab Decomposition
 


     bravais-lattice index     =            0
     lattice parameter (alat)  =      12.2467  a.u.
     unit-cell volume          =    5883.2137 (a.u.)^3
     number of atoms/cell      =           46
     number of atomic types    =            3
     number of electrons       =       366.00
     number of Kohn-Sham states=          220
     kinetic-energy cutoff     =      50.0000  Ry
     charge density cutoff     =     500.0000  Ry
     scf convergence threshold =      1.0E-09
     mixing beta               =       0.7000
     number of iterations used =            8  local-TF  mixing
     energy convergence thresh.=      1.0E-04
     force convergence thresh. =      1.0E-04
     Exchange-correlation= PBE
                           (   1   4   3   4   0   0   0)
     nstep                     =          200


     ================================================================================
 
                                  Environ Setup Summary

     ================================================================================
 
     Please cite

          O. Andreussi, I. Dabo and N. Marzari, J. Chem. Phys. 136, 064102 (2012)

     in publications or presentations arising from this work.

     ================================================================================
 
     Parameters
     ==========

     compensation onset threshold      =               0.1000E+00
     static permittivity               =                    78.30
     surface tension in input (dyn/cm) =                    47.90
     surface tension in internal units =               0.6153E-04
     external pressure in input (GPa)  =                    -0.36
     external pressure in inter. units =              -0.2447E-04

     Solvent Boundary
     ================

     solvent mode                      =               electronic
     derivatives method                =                    chain
     numerical core for derivatives    =                      fft
     switching function adopted        =                     SCCS
     density limit for vacuum region   =               0.5000E-02
     density limit for bulk solvent    =               0.1000E-03

     Electrostatic Setup
     ===================

     electrostatic problem to solve    =              generalized
     numerical solver adopted          =                       cg
     type of auxiliary density adopted =                     none
     numerical core for poisson        =                      fft
     type of pbc corrections           =                parabolic
     numerical core for corrections    =                      1da

     ================================================================================
 

     celldm(1)=  12.246684  celldm(2)=   0.000000  celldm(3)=   0.000000
     celldm(4)=   0.000000  celldm(5)=   0.000000  celldm(6)=   0.000000

     crystal axes: (cart. coord. in units of alat)
               a(1) = (   1.000000   0.000000   0.000000 )  
               a(2) = (   0.000000   0.937861   0.000000 )  
               a(3) = (   0.000000   0.000000   3.415235 )  

     reciprocal axes: (cart. coord. in units 2 pi/alat)
               b(1) = (  1.000000  0.000000  0.000000 )  
               b(2) = (  0.000000  1.066256  0.000000 )  
               b(3) = (  0.000000  0.000000  0.292806 )  


     PseudoPot. # 1 for O  read from file:
     /gpfs/group/ixd4/default/Simon/pseudopotentials/materialscloud/SSSP_1.3.0_PBE_efficiency/O.pbe-n-kjpaw_psl.0.1.UPF
     MD5 check sum: 0234752ac141de4415c5fc33072bef88
     Pseudo is Projector augmented-wave + core cor, Zval =  6.0
     Generated using "atomic" code by A. Dal Corso  v.5.0.99 svn rev. 10869
     Shape of augmentation charge: BESSEL
     Using radial grid of 1095 points,  4 beta functions with: 
                l(1) =   0
                l(2) =   0
                l(3) =   1
                l(4) =   1
     Q(r) pseudized with 0 coefficients 


     PseudoPot. # 2 for Ru read from file:
     /gpfs/group/ixd4/default/Simon/pseudopotentials/materialscloud/SSSP_1.3.0_PBE_efficiency/Ru_ONCV_PBE-1.0.oncvpsp.upf
     MD5 check sum: be037bb81c227cfb9b1461a9f099f4bd
     Pseudo is Norm-conserving, Zval = 16.0
     Generated using ONCVPSP code by D. R. Hamann
     Using radial grid of 1458 points,  6 beta functions with: 
                l(1) =   0
                l(2) =   0
                l(3) =   1
                l(4) =   1
                l(5) =   2
                l(6) =   2

     PseudoPot. # 3 for H  read from file:
     /gpfs/group/ixd4/default/Simon/pseudopotentials/materialscloud/SSSP_1.3.0_PBE_efficiency/H.pbe-rrkjus_psl.1.0.0.UPF
     MD5 check sum: f52b6d4d1c606e5624b1dc7b2218f220
     Pseudo is Ultrasoft, Zval =  1.0
     Generated using "atomic" code by A. Dal Corso  v.5.1
     Using radial grid of  929 points,  2 beta functions with: 
                l(1) =   0
                l(2) =   0
     Q(r) pseudized with 0 coefficients 


     atomic species   valence    mass     pseudopotential
        O              6.00    15.99940     O ( 1.00)
        Ru            16.00   101.07000     Ru( 1.00)
        H              1.00     1.00794     H ( 1.00)

      4 Sym. Ops. (no inversion) found



   Cartesian axes

     site n.     atom                  positions (alat units)
         1           O   tau(   1) = (  -0.0030838   0.4689304   0.9213165  )
         2           O   tau(   2) = (   0.4848685   0.4689304   0.9340347  )
         3           O   tau(   3) = (  -0.0003085   0.0000000   1.0492488  )
         4           O   tau(   4) = (   0.5002746   0.0000000   0.9882231  )
         5           Ru  tau(   5) = (   0.2378522   0.0000000   1.2227985  )
         6           Ru  tau(   6) = (   0.7607819   0.0000000   1.2220367  )
         7           O   tau(   7) = (   0.2474555   0.2905573   1.2247493  )
         8           O   tau(   8) = (   0.7507149   0.2915562   1.2208234  )
         9           Ru  tau(   9) = (  -0.0002380   0.4689304   1.2212482  )
        10           Ru  tau(  10) = (   0.5007391   0.4689304   1.2072557  )
        11           O   tau(  11) = (   0.2474555   0.6473036   1.2247493  )
        12           O   tau(  12) = (   0.7507149   0.6463046   1.2208234  )
        13           O   tau(  13) = (  -0.0004466   0.0000000   1.4081210  )
        14           O   tau(  14) = (   0.5006450   0.0000000   1.4030743  )
        15           O   tau(  15) = (  -0.0005177   0.4689304   1.5241056  )
        16           O   tau(  16) = (   0.4985050   0.4689304   1.5143179  )
        17           Ru  tau(  17) = (   0.0004600   0.0000000   1.7076210  )
        18           Ru  tau(  18) = (   0.5005587   0.0000000   1.7076210  )
        19           O   tau(  19) = (   0.2527102   0.1764087   1.7076210  )
        20           O   tau(  20) = (   0.7490819   0.1765198   1.7076210  )
        21           Ru  tau(  21) = (   0.2505980   0.4689304   1.7076210  )
        22           Ru  tau(  22) = (   0.7478834   0.4689304   1.7076210  )
        23           O   tau(  23) = (   0.2527102   0.7614531   1.7076210  )
        24           O   tau(  24) = (   0.7490819   0.7613420   1.7076210  )
        25           O   tau(  25) = (  -0.0005177   0.4689304   1.8911330  )
        26           O   tau(  26) = (   0.4985050   0.4689304   1.9009207  )
        27           O   tau(  27) = (  -0.0004466   0.0000000   2.0071177  )
        28           O   tau(  28) = (   0.5006450   0.0000000   2.0121643  )
        29           Ru  tau(  29) = (   0.2378522   0.0000000   2.1924402  )
        30           Ru  tau(  30) = (   0.7607819   0.0000000   2.1932019  )
        31           O   tau(  31) = (   0.2474555   0.2905573   2.1904893  )
        32           O   tau(  32) = (   0.7507149   0.2915562   2.1944152  )
        33           Ru  tau(  33) = (  -0.0002380   0.4689304   2.1939905  )
        34           Ru  tau(  34) = (   0.5007391   0.4689304   2.2079829  )
        35           O   tau(  35) = (   0.2474555   0.6473036   2.1904893  )
        36           O   tau(  36) = (   0.7507149   0.6463046   2.1944152  )
        37           O   tau(  37) = (  -0.0003085   0.0000000   2.3659932  )
        38           O   tau(  38) = (   0.5002746   0.0000000   2.4270189  )
        39           O   tau(  39) = (  -0.0030838   0.4689304   2.4939221  )
        40           O   tau(  40) = (   0.4848685   0.4689304   2.4812039  )
        41           H   tau(  41) = (   0.1382504   0.4689304   0.8683700  )
        42           H   tau(  42) = (   0.1382504   0.4689304   2.5468653  )
        43           H   tau(  43) = (   0.5012150   0.1224909   0.8972451  )
        44           H   tau(  44) = (   0.5012150   0.1224909   2.5179901  )
        45           H   tau(  45) = (   0.5012150   0.8153700   0.8972451  )
        46           H   tau(  46) = (   0.5012150   0.8153700   2.5179901  )

     number of k points=     1  Marzari-Vanderbilt smearing, width (Ry)=  0.0300
                       cart. coord. in units 2pi/alat
        k(    1) = (   0.2500000   0.2665641   0.0000000), wk =   2.0000000

     Dense  grid:  1110843 G-vectors     FFT dimensions: (  90,  81, 300)

     Smooth grid:   280917 G-vectors     FFT dimensions: (  60,  54, 192)

     Estimated max dynamical RAM per process >     170.24 MB

     Estimated total dynamical RAM >       3.33 GB

     Check: negative core charge=   -0.000001

     Initial potential from superposition of free atoms

     starting charge     365.9933, renormalised to     366.0000

     add environment contribution to local potential
     Polarization accuracy = 7.7E-12, # of iterations =  23

     negative rho (up, down):  3.018E-05 0.000E+00
     Starting wfcs are  238 randomized atomic wfcs
     Checking if some PAW data can be deallocated... 

     total cpu time spent up to now is      708.9 secs

     per-process dynamical memory:   139.0 Mb

     Self-consistent Calculation

     iteration #  1     ecut=    50.00 Ry     beta= 0.70
     Davidson diagonalization with overlap
     ethr =  1.00E-02,  avg # of iterations =  2.0

     total cpu time spent up to now is      873.0 secs

     total energy              =   -3432.76451030 Ry
     estimated scf accuracy    <       9.83777994 Ry
     electrostatic embedding   =      -0.00176248 Ry
     cavitation energy         =       0.01971255 Ry
     PV energy                 =      -0.08523695 Ry
     correction to one-el term =     218.70033497 Ry

     iteration #  2     ecut=    50.00 Ry     beta= 0.70
     Davidson diagonalization with overlap
     ethr =  2.69E-03,  avg # of iterations =  2.0

     total cpu time spent up to now is     1020.1 secs

     total energy              =   -3434.87052141 Ry
     estimated scf accuracy    <       2.63995401 Ry
     electrostatic embedding   =      -0.00272822 Ry
     cavitation energy         =       0.01979671 Ry
     PV energy                 =      -0.08574964 Ry
     correction to one-el term =     218.70301057 Ry

     iteration #  3     ecut=    50.00 Ry     beta= 0.70
     Davidson diagonalization with overlap
     ethr =  7.21E-04,  avg # of iterations =  1.0

     total cpu time spent up to now is     1176.8 secs

     total energy              =   -3435.06736314 Ry
     estimated scf accuracy    <       0.55419221 Ry
     electrostatic embedding   =      -0.00318053 Ry
     cavitation energy         =       0.01982404 Ry
     PV energy                 =      -0.08598963 Ry
     correction to one-el term =     218.70423049 Ry

     iteration #  4     ecut=    50.00 Ry     beta= 0.70
     Davidson diagonalization with overlap
     ethr =  1.51E-04,  avg # of iterations =  2.0

     total cpu time spent up to now is     1322.3 secs

     total energy              =   -3435.11223434 Ry
     estimated scf accuracy    <       0.85705960 Ry
     electrostatic embedding   =      -0.00334163 Ry
     cavitation energy         =       0.01996981 Ry
     PV energy                 =      -0.08558413 Ry
     correction to one-el term =     218.70437738 Ry

     iteration #  5     ecut=    50.00 Ry     beta= 0.70
     Davidson diagonalization with overlap
     ethr =  1.51E-04,  avg # of iterations =  1.0

     total cpu time spent up to now is     1473.4 secs

     total energy              =   -3435.09772377 Ry
     estimated scf accuracy    <       0.31687985 Ry
     electrostatic embedding   =      -0.00356231 Ry
     cavitation energy         =       0.02022421 Ry
     PV energy                 =      -0.08509277 Ry
     correction to one-el term =     218.70465827 Ry

     iteration #  6     ecut=    50.00 Ry     beta= 0.70
     Davidson diagonalization with overlap
     ethr =  8.66E-05,  avg # of iterations =  1.0

     total cpu time spent up to now is     1633.3 secs

     total energy              =   -3435.09319297 Ry
     estimated scf accuracy    <       0.19867828 Ry
     electrostatic embedding   =      -0.00372614 Ry
     cavitation energy         =       0.02071847 Ry
     PV energy                 =      -0.08392868 Ry
     correction to one-el term =     218.70458111 Ry

     iteration #  7     ecut=    50.00 Ry     beta= 0.70
     Davidson diagonalization with overlap
     ethr =  5.43E-05,  avg # of iterations =  2.0

     total cpu time spent up to now is     1786.0 secs

     total energy              =   -3435.08292893 Ry
     estimated scf accuracy    <       0.11669854 Ry
     electrostatic embedding   =      -0.00367005 Ry
     cavitation energy         =       0.02096090 Ry
     PV energy                 =      -0.08313720 Ry
     correction to one-el term =     218.70414523 Ry

     iteration #  8     ecut=    50.00 Ry     beta= 0.70
     Davidson diagonalization with overlap
     ethr =  3.19E-05,  avg # of iterations = 11.0

     add environment contribution to local potential
     Polarization accuracy = 1.8E-12, # of iterations =  44

     total cpu time spent up to now is     1958.7 secs

     total energy              =   -3435.08166994 Ry
     estimated scf accuracy    <       0.04599082 Ry
     electrostatic embedding   =      -0.00339883 Ry
     cavitation energy         =       0.02135937 Ry
     PV energy                 =      -0.08187903 Ry
     correction to one-el term =     218.70294534 Ry

     iteration #  9     ecut=    50.00 Ry     beta= 0.70
     Davidson diagonalization with overlap
     ethr =  1.26E-05,  avg # of iterations = 10.0

     total cpu time spent up to now is     2092.1 secs

     total energy              =   -3435.15137252 Ry
     estimated scf accuracy    <       0.12241633 Ry
     electrostatic embedding   =      -0.07022954 Ry
     cavitation energy         =       0.02140429 Ry
     PV energy                 =      -0.08159750 Ry
     correction to one-el term =     180.82149937 Ry

     iteration # 10     ecut=    50.00 Ry     beta= 0.70
     Davidson diagonalization with overlap
     ethr =  1.26E-05,  avg # of iterations =  1.0

     add environment contribution to local potential
     Polarization accuracy = 4.0E-12, # of iterations =  44

     total cpu time spent up to now is     2264.1 secs

     total energy              =   -3435.14482880 Ry
     estimated scf accuracy    <       0.07751392 Ry
     electrostatic embedding   =      -0.07074647 Ry
     cavitation energy         =       0.02141671 Ry
     PV energy                 =      -0.08152875 Ry
     correction to one-el term =     180.82323110 Ry

     iteration # 11     ecut=    50.00 Ry     beta= 0.70
     Davidson diagonalization with overlap
     ethr =  1.26E-05,  avg # of iterations =  1.0

     add environment contribution to local potential
     Polarization accuracy = 4.8E-12, # of iterations =  44

     total cpu time spent up to now is     2438.3 secs

     total energy              =   -3435.14399635 Ry
     estimated scf accuracy    <       0.04589474 Ry
     electrostatic embedding   =      -0.07587070 Ry
     cavitation energy         =       0.02137665 Ry
     PV energy                 =      -0.08146959 Ry
     correction to one-el term =     180.79604533 Ry

     iteration # 12     ecut=    50.00 Ry     beta= 0.70
     Davidson diagonalization with overlap
     ethr =  1.25E-05,  avg # of iterations =  2.0

     negative rho (up, down):  9.054E-05 0.000E+00

     add environment contribution to local potential
     Polarization accuracy = 8.2E-12, # of iterations =  44

     total cpu time spent up to now is     2595.3 secs

     total energy              =   -3435.14690984 Ry
     estimated scf accuracy    <       0.01107742 Ry
     electrostatic embedding   =      -0.08482351 Ry
     cavitation energy         =       0.02131975 Ry
     PV energy                 =      -0.08136859 Ry
     correction to one-el term =     181.05500296 Ry

     iteration # 13     ecut=    50.00 Ry     beta= 0.70
     Davidson diagonalization with overlap
     ethr =  3.03E-06,  avg # of iterations =  5.0

     negative rho (up, down):  1.779E-03 0.000E+00

     add environment contribution to local potential
     Polarization accuracy = 7.3E-12, # of iterations =  46

     total cpu time spent up to now is     2764.9 secs

     total energy              =   -3435.14921172 Ry
     estimated scf accuracy    <       0.00418664 Ry
     electrostatic embedding   =      -0.09257467 Ry
     cavitation energy         =       0.02125666 Ry
     PV energy                 =      -0.08131369 Ry
     correction to one-el term =     181.44008314 Ry

     iteration # 14     ecut=    50.00 Ry     beta= 0.70
     Davidson diagonalization with overlap
     ethr =  1.14E-06,  avg # of iterations = 16.0

     negative rho (up, down):  4.109E-04 0.000E+00

     add environment contribution to local potential
     Polarization accuracy = 9.1E-12, # of iterations =  44

     total cpu time spent up to now is     2923.0 secs

     total energy              =   -3435.15037237 Ry
     estimated scf accuracy    <       0.00641796 Ry
     electrostatic embedding   =      -0.10284657 Ry
     cavitation energy         =       0.02120024 Ry
     PV energy                 =      -0.08127165 Ry
     correction to one-el term =     181.76939937 Ry

     iteration # 15     ecut=    50.00 Ry     beta= 0.70
     Davidson diagonalization with overlap
     ethr =  1.14E-06,  avg # of iterations =  6.0

     negative rho (up, down):  4.298E-08 0.000E+00

     add environment contribution to local potential
     Polarization accuracy = 3.6E-12, # of iterations =  44

     total cpu time spent up to now is     3073.3 secs

     total energy              =   -3435.15029720 Ry
     estimated scf accuracy    <       0.00407434 Ry
     electrostatic embedding   =      -0.10387490 Ry
     cavitation energy         =       0.02111574 Ry
     PV energy                 =      -0.08141007 Ry
     correction to one-el term =     182.59428254 Ry

     iteration # 16     ecut=    50.00 Ry     beta= 0.70
     Davidson diagonalization with overlap
     ethr =  1.11E-06,  avg # of iterations =  5.0

     negative rho (up, down):  2.967E-07 0.000E+00

     add environment contribution to local potential
     Polarization accuracy = 3.6E-12, # of iterations =  44

     total cpu time spent up to now is     3246.5 secs

     total energy              =   -3435.15067379 Ry
     estimated scf accuracy    <       0.00170599 Ry
     electrostatic embedding   =      -0.10132677 Ry
     cavitation energy         =       0.02109548 Ry
     PV energy                 =      -0.08149136 Ry
     correction to one-el term =     182.97250430 Ry

     iteration # 17     ecut=    50.00 Ry     beta= 0.70
     Davidson diagonalization with overlap
     ethr =  4.66E-07,  avg # of iterations =  6.0

     negative rho (up, down):  1.894E-06 0.000E+00

     add environment contribution to local potential
     Polarization accuracy = 3.4E-12, # of iterations =  43

     total cpu time spent up to now is     3417.2 secs

     total energy              =   -3435.15056516 Ry
     estimated scf accuracy    <       0.00172632 Ry
     electrostatic embedding   =      -0.10140082 Ry
     cavitation energy         =       0.02105975 Ry
     PV energy                 =      -0.08155094 Ry
     correction to one-el term =     183.55950905 Ry

     iteration # 18     ecut=    50.00 Ry     beta= 0.70
     Davidson diagonalization with overlap
     ethr =  4.66E-07,  avg # of iterations =  8.0

     negative rho (up, down):  2.613E-05 0.000E+00

     add environment contribution to local potential
     Polarization accuracy = 3.9E-12, # of iterations =  43

     total cpu time spent up to now is     3584.5 secs

     total energy              =   -3435.15086004 Ry
     estimated scf accuracy    <       0.00018744 Ry
     electrostatic embedding   =      -0.09710103 Ry
     cavitation energy         =       0.02102179 Ry
     PV energy                 =      -0.08167265 Ry
     correction to one-el term =     184.28966453 Ry

     iteration # 19     ecut=    50.00 Ry     beta= 0.70
     Davidson diagonalization with overlap
     ethr =  5.12E-08,  avg # of iterations =  3.0

     negative rho (up, down):  7.676E-04 0.000E+00

     add environment contribution to local potential
     Polarization accuracy = 3.8E-12, # of iterations =  43

     total cpu time spent up to now is     3751.4 secs

     total energy              =   -3435.15089805 Ry
     estimated scf accuracy    <       0.00015449 Ry
     electrostatic embedding   =      -0.09648274 Ry
     cavitation energy         =       0.02102427 Ry
     PV energy                 =      -0.08166149 Ry
     correction to one-el term =     184.39870356 Ry

     iteration # 20     ecut=    50.00 Ry     beta= 0.70
     Davidson diagonalization with overlap
     ethr =  4.22E-08,  avg # of iterations =  3.0

     negative rho (up, down):  1.142E-03 0.000E+00

     add environment contribution to local potential
     Polarization accuracy = 4.1E-12, # of iterations =  43

     total cpu time spent up to now is     3925.0 secs

     total energy              =   -3435.15092451 Ry
     estimated scf accuracy    <       0.00007723 Ry
     electrostatic embedding   =      -0.09566165 Ry
     cavitation energy         =       0.02102009 Ry
     PV energy                 =      -0.08166510 Ry
     correction to one-el term =     184.57016725 Ry

     iteration # 21     ecut=    50.00 Ry     beta= 0.70
     Davidson diagonalization with overlap
     ethr =  2.11E-08,  avg # of iterations =  5.0

     negative rho (up, down):  2.786E-04 0.000E+00

     add environment contribution to local potential
     Polarization accuracy = 6.1E-12, # of iterations =  43

     total cpu time spent up to now is     4091.1 secs

     total energy              =   -3435.15095799 Ry
     estimated scf accuracy    <       0.00003953 Ry
     electrostatic embedding   =      -0.09368470 Ry
     cavitation energy         =       0.02102120 Ry
     PV energy                 =      -0.08165869 Ry
     correction to one-el term =     184.80656789 Ry

     iteration # 22     ecut=    50.00 Ry     beta= 0.70
     Davidson diagonalization with overlap
     ethr =  1.08E-08,  avg # of iterations =  5.0

     negative rho (up, down):  8.500E-05 0.000E+00

     add environment contribution to local potential
     Polarization accuracy = 6.8E-12, # of iterations =  43

     total cpu time spent up to now is     4244.4 secs

     total energy              =   -3435.15096896 Ry
     estimated scf accuracy    <       0.00002613 Ry
     electrostatic embedding   =      -0.09312181 Ry
     cavitation energy         =       0.02102560 Ry
     PV energy                 =      -0.08163620 Ry
     correction to one-el term =     184.83399941 Ry

     iteration # 23     ecut=    50.00 Ry     beta= 0.70
     Davidson diagonalization with overlap
     ethr =  7.14E-09,  avg # of iterations = 15.0

     negative rho (up, down):  1.178E-04 0.000E+00

     add environment contribution to local potential
     Polarization accuracy = 6.8E-12, # of iterations =  43

     total cpu time spent up to now is     4407.5 secs

     total energy              =   -3435.15097484 Ry
     estimated scf accuracy    <       0.00000268 Ry
     electrostatic embedding   =      -0.09257631 Ry
     cavitation energy         =       0.02102769 Ry
     PV energy                 =      -0.08162098 Ry
     correction to one-el term =     184.87465734 Ry

     iteration # 24     ecut=    50.00 Ry     beta= 0.70
     Davidson diagonalization with overlap
     ethr =  7.32E-10,  avg # of iterations =  3.0

     negative rho (up, down):  8.512E-05 0.000E+00

     add environment contribution to local potential
     Polarization accuracy = 6.9E-12, # of iterations =  43

     total cpu time spent up to now is     4553.2 secs

     total energy              =   -3435.15097556 Ry
     estimated scf accuracy    <       0.00000356 Ry
     electrostatic embedding   =      -0.09263068 Ry
     cavitation energy         =       0.02102604 Ry
     PV energy                 =      -0.08162347 Ry
     correction to one-el term =     184.86942394 Ry

     iteration # 25     ecut=    50.00 Ry     beta= 0.70
     Davidson diagonalization with overlap
     ethr =  7.32E-10,  avg # of iterations =  2.0

     negative rho (up, down):  8.075E-05 0.000E+00

     add environment contribution to local potential
     Polarization accuracy = 6.9E-12, # of iterations =  43

     total cpu time spent up to now is     4709.2 secs

     total energy              =   -3435.15097684 Ry
     estimated scf accuracy    <       0.00000077 Ry
     electrostatic embedding   =      -0.09244990 Ry
     cavitation energy         =       0.02102606 Ry
     PV energy                 =      -0.08161988 Ry
     correction to one-el term =     184.87890646 Ry

     iteration # 26     ecut=    50.00 Ry     beta= 0.70
     Davidson diagonalization with overlap
     ethr =  2.11E-10,  avg # of iterations =  2.0

     negative rho (up, down):  8.859E-05 0.000E+00

     add environment contribution to local potential
     Polarization accuracy = 6.8E-12, # of iterations =  43

     total cpu time spent up to now is     4852.6 secs

     total energy              =   -3435.15097786 Ry
     estimated scf accuracy    <       0.00000044 Ry
     electrostatic embedding   =      -0.09245447 Ry
     cavitation energy         =       0.02102515 Ry
     PV energy                 =      -0.08162080 Ry
     correction to one-el term =     184.87183435 Ry

     iteration # 27     ecut=    50.00 Ry     beta= 0.70
     Davidson diagonalization with overlap
     ethr =  1.21E-10,  avg # of iterations =  2.0

     negative rho (up, down):  1.158E-04 0.000E+00

     add environment contribution to local potential
     Polarization accuracy = 6.7E-12, # of iterations =  43

     total cpu time spent up to now is     4992.7 secs

     total energy              =   -3435.15097851 Ry
     estimated scf accuracy    <       0.00000027 Ry
     electrostatic embedding   =      -0.09244330 Ry
     cavitation energy         =       0.02102455 Ry
     PV energy                 =      -0.08162200 Ry
     correction to one-el term =     184.87062191 Ry

     iteration # 28     ecut=    50.00 Ry     beta= 0.70
     Davidson diagonalization with overlap
     ethr =  7.45E-11,  avg # of iterations =  3.0

     negative rho (up, down):  1.248E-04 0.000E+00

     add environment contribution to local potential
     Polarization accuracy = 6.7E-12, # of iterations =  43

     total cpu time spent up to now is     5160.5 secs

     total energy              =   -3435.15097901 Ry
     estimated scf accuracy    <       0.00000013 Ry
     electrostatic embedding   =      -0.09238602 Ry
     cavitation energy         =       0.02102402 Ry
     PV energy                 =      -0.08162306 Ry
     correction to one-el term =     184.87873830 Ry

     iteration # 29     ecut=    50.00 Ry     beta= 0.70
     Davidson diagonalization with overlap
     ethr =  3.58E-11,  avg # of iterations =  2.0

     negative rho (up, down):  1.329E-04 0.000E+00

     add environment contribution to local potential
     Polarization accuracy = 6.9E-12, # of iterations =  43

     total cpu time spent up to now is     5344.2 secs

     total energy              =   -3435.15097948 Ry
     estimated scf accuracy    <       0.00000011 Ry
     electrostatic embedding   =      -0.09234691 Ry
     cavitation energy         =       0.02102377 Ry
     PV energy                 =      -0.08162367 Ry
     correction to one-el term =     184.88371840 Ry

     iteration # 30     ecut=    50.00 Ry     beta= 0.70
     Davidson diagonalization with overlap
     ethr =  2.87E-11,  avg # of iterations =  1.0

     negative rho (up, down):  1.371E-04 0.000E+00

     add environment contribution to local potential
     Polarization accuracy = 6.6E-12, # of iterations =  43

     total cpu time spent up to now is     5499.3 secs

     total energy              =   -3435.15097978 Ry
     estimated scf accuracy    <       0.00000008 Ry
     electrostatic embedding   =      -0.09234722 Ry
     cavitation energy         =       0.02102361 Ry
     PV energy                 =      -0.08162425 Ry
     correction to one-el term =     184.88505744 Ry

     iteration # 31     ecut=    50.00 Ry     beta= 0.70
     Davidson diagonalization with overlap
     ethr =  2.12E-11,  avg # of iterations =  2.0

     negative rho (up, down):  1.371E-04 0.000E+00

     add environment contribution to local potential
     Polarization accuracy = 6.6E-12, # of iterations =  43

     total cpu time spent up to now is     5652.2 secs

     total energy              =   -3435.15098017 Ry
     estimated scf accuracy    <       0.00000006 Ry
     electrostatic embedding   =      -0.09232675 Ry
     cavitation energy         =       0.02102349 Ry
     PV energy                 =      -0.08162449 Ry
     correction to one-el term =     184.88799329 Ry

     iteration # 32     ecut=    50.00 Ry     beta= 0.70
     Davidson diagonalization with overlap
     ethr =  1.69E-11,  avg # of iterations =  1.0

     negative rho (up, down):  1.384E-04 0.000E+00

     add environment contribution to local potential
     Polarization accuracy = 6.6E-12, # of iterations =  43

     total cpu time spent up to now is     5809.2 secs

     total energy              =   -3435.15098059 Ry
     estimated scf accuracy    <       0.00000006 Ry
     electrostatic embedding   =      -0.09232011 Ry
     cavitation energy         =       0.02102346 Ry
     PV energy                 =      -0.08162454 Ry
     correction to one-el term =     184.88947537 Ry

     iteration # 33     ecut=    50.00 Ry     beta= 0.70
     Davidson diagonalization with overlap
     ethr =  1.64E-11,  avg # of iterations =  2.0

     negative rho (up, down):  1.304E-04 0.000E+00

     add environment contribution to local potential
     Polarization accuracy = 6.5E-12, # of iterations =  43

     total cpu time spent up to now is     5991.5 secs

     total energy              =   -3435.15098132 Ry
     estimated scf accuracy    <       0.00000006 Ry
     electrostatic embedding   =      -0.09230409 Ry
     cavitation energy         =       0.02102336 Ry
     PV energy                 =      -0.08162466 Ry
     correction to one-el term =     184.89194481 Ry

     iteration # 34     ecut=    50.00 Ry     beta= 0.70
     Davidson diagonalization with overlap
     ethr =  1.56E-11,  avg # of iterations =  2.0

     negative rho (up, down):  1.291E-04 0.000E+00

     add environment contribution to local potential
     Polarization accuracy = 6.6E-12, # of iterations =  43

     total cpu time spent up to now is     6133.9 secs

     total energy              =   -3435.15098175 Ry
     estimated scf accuracy    <       0.00000005 Ry
     electrostatic embedding   =      -0.09231909 Ry
     cavitation energy         =       0.02102349 Ry
     PV energy                 =      -0.08162422 Ry
     correction to one-el term =     184.88955701 Ry

     iteration # 35     ecut=    50.00 Ry     beta= 0.70
     Davidson diagonalization with overlap
     ethr =  1.42E-11,  avg # of iterations =  2.0

     negative rho (up, down):  1.241E-04 0.000E+00

     add environment contribution to local potential
     Polarization accuracy = 6.8E-12, # of iterations =  43

     total cpu time spent up to now is     6302.0 secs

     total energy              =   -3435.15098389 Ry
     estimated scf accuracy    <       0.00000006 Ry
     electrostatic embedding   =      -0.09230692 Ry
     cavitation energy         =       0.02102344 Ry
     PV energy                 =      -0.08162414 Ry
     correction to one-el term =     184.89168188 Ry

     iteration # 36     ecut=    50.00 Ry     beta= 0.70
     Davidson diagonalization with overlap
     ethr =  1.42E-11,  avg # of iterations =  2.0

     negative rho (up, down):  1.212E-04 0.000E+00

     add environment contribution to local potential
     Polarization accuracy = 6.6E-12, # of iterations =  43

     total cpu time spent up to now is     6447.3 secs

     total energy              =   -3435.15098882 Ry
     estimated scf accuracy    <       0.00000004 Ry
     electrostatic embedding   =      -0.09229427 Ry
     cavitation energy         =       0.02102340 Ry
     PV energy                 =      -0.08162384 Ry
     correction to one-el term =     184.89355191 Ry

     iteration # 37     ecut=    50.00 Ry     beta= 0.70
     Davidson diagonalization with overlap
     ethr =  1.15E-11,  avg # of iterations =  3.0

     negative rho (up, down):  1.190E-04 0.000E+00

     add environment contribution to local potential
     Polarization accuracy = 6.6E-12, # of iterations =  43

     total cpu time spent up to now is     6603.7 secs

     total energy              =   -3435.15099246 Ry
     estimated scf accuracy    <       0.00000003 Ry
     electrostatic embedding   =      -0.09231353 Ry
     cavitation energy         =       0.02102352 Ry
     PV energy                 =      -0.08162361 Ry
     correction to one-el term =     184.89030008 Ry

     iteration # 38     ecut=    50.00 Ry     beta= 0.70
     Davidson diagonalization with overlap
     ethr =  8.78E-12,  avg # of iterations =  5.0

     negative rho (up, down):  1.287E-04 0.000E+00

     add environment contribution to local potential
     Polarization accuracy = 6.6E-12, # of iterations =  43

     total cpu time spent up to now is     6754.7 secs

     total energy              =   -3435.15100088 Ry
     estimated scf accuracy    <       0.00000001 Ry
     electrostatic embedding   =      -0.09232541 Ry
     cavitation energy         =       0.02102360 Ry
     PV energy                 =      -0.08162338 Ry
     correction to one-el term =     184.88823501 Ry

     iteration # 39     ecut=    50.00 Ry     beta= 0.70
     Davidson diagonalization with overlap
     ethr =  3.40E-12,  avg # of iterations =  5.0

     negative rho (up, down):  1.325E-04 0.000E+00

     add environment contribution to local potential
     Polarization accuracy = 5.8E-12, # of iterations =  43

     total cpu time spent up to now is     6910.8 secs

     total energy              =   -3435.15100797 Ry
     estimated scf accuracy    <          7.9E-09 Ry
     electrostatic embedding   =      -0.09232997 Ry
     cavitation energy         =       0.02102357 Ry
     PV energy                 =      -0.08162390 Ry
     correction to one-el term =     184.88751251 Ry

     iteration # 40     ecut=    50.00 Ry     beta= 0.70
     Davidson diagonalization with overlap
     ethr =  2.16E-12,  avg # of iterations =  2.0

     negative rho (up, down):  1.335E-04 0.000E+00

     add environment contribution to local potential
     Polarization accuracy = 6.6E-12, # of iterations =  43

     total cpu time spent up to now is     7074.3 secs

     total energy              =   -3435.15100899 Ry
     estimated scf accuracy    <          2.5E-09 Ry
     electrostatic embedding   =      -0.09232635 Ry
     cavitation energy         =       0.02102353 Ry
     PV energy                 =      -0.08162412 Ry
     correction to one-el term =     184.88818840 Ry

     iteration # 41     ecut=    50.00 Ry     beta= 0.70
     Davidson diagonalization with overlap
     ethr =  6.85E-13,  avg # of iterations =  2.0

     negative rho (up, down):  1.341E-04 0.000E+00

     the potential shift due to the Gaussian-smeared nuclei is    -1.3296 ev

     total cpu time spent up to now is     7217.9 secs

     End of self-consistent calculation

          k = 0.2500 0.2666 0.0000 ( 35123 PWs)   bands (ev):

   -77.5750 -77.5614 -77.0349 -77.0218 -77.0042 -76.9911 -76.9734 -76.9600
   -76.8510 -76.7755 -76.7697 -76.7506 -47.9665 -47.9529 -47.5347 -47.5211
   -47.3266 -47.3133 -47.2821 -47.2688 -47.2372 -47.2359 -47.2236 -47.2225
   -47.0895 -47.0783 -47.0488 -47.0300 -47.0237 -47.0035 -46.9526 -46.9392
   -46.9164 -46.9033 -46.8990 -46.8891 -46.8826 -46.8546 -46.8417 -46.7441
   -46.7438 -46.7304 -46.7166 -46.6762 -46.6242 -46.5915 -46.5899 -46.5589
   -25.8555 -25.8365 -23.4546 -23.2736 -23.1284 -22.9975 -22.8285 -22.7958
   -22.7149 -22.6575 -22.5330 -22.3797 -22.3027 -22.2327 -22.2195 -22.1367
   -22.0842 -22.0508 -22.0201 -21.9769 -21.9089 -21.8675 -21.7498 -21.7088
   -21.4353 -21.3217 -21.0663 -21.0124 -13.5215 -13.5026 -11.6132 -11.5239
   -11.5111 -11.3833 -11.3594 -10.9892 -10.9534 -10.8967 -10.8237 -10.7316
   -10.6767 -10.5546 -10.5429 -10.4940 -10.4752 -10.4193 -10.3609 -10.3395
   -10.3172 -10.1394 -10.0683 -10.0521  -9.9810  -9.8593  -9.6870  -9.6221
    -9.5910  -9.4597  -9.3852  -9.3435  -9.2614  -9.1739  -9.1067  -9.0050
    -8.9342  -8.7705  -8.6735  -8.6266  -8.5349  -8.5021  -8.4454  -8.3299
    -8.2769  -8.2023  -8.1961  -8.1293  -7.9596  -7.9077  -7.8149  -7.7584
    -7.7325  -7.6430  -7.5793  -7.5770  -7.5359  -7.3990  -7.3876  -7.3741
    -7.2497  -7.2009  -7.1817  -7.1398  -6.9775  -6.9370  -6.8871  -6.7379
    -6.6072  -6.5794  -6.5092  -6.4242  -6.3465  -6.2831  -6.2712  -6.2197
    -6.0581  -6.0152  -5.9705  -5.8497  -5.7922  -5.6471  -5.5843  -5.5172
    -4.5700  -4.5589  -4.5181  -4.4040  -4.3698  -4.3364  -4.2902  -4.2272
    -4.1993  -4.1338  -4.1303  -4.0847  -4.0086  -3.9692  -3.9331  -3.8891
    -3.8878  -3.8328  -3.7672  -3.6497  -3.5753  -3.5173  -3.4931  -3.4761
    -3.2841  -3.2525  -3.0613  -3.0006  -2.8402  -2.6414  -2.6000  -2.5827
    -2.5605  -2.4912  -2.3205  -2.1578  -1.8171  -1.4646  -1.3911  -1.2479
    -1.1326  -0.9972  -0.6816  -0.6125  -0.3569  -0.0002   0.2085   0.2760
     0.4182   0.4832   0.5439   0.6483   0.7779   0.8830   0.9531   1.1687
     1.2319   1.2654   1.2996   1.3881

     the Fermi energy is    -3.4435 ev

!    total energy              =   -3435.15100951 Ry
     estimated scf accuracy    <          9.5E-10 Ry
     smearing contrib. (-TS)   =       0.05011958 Ry
     internal energy E=F+TS    =   -3435.20112909 Ry

     The total energy is F=E-TS. E is the sum of the following terms:
     one-electron contribution =  -25364.71968137 Ry
     hartree contribution      =   12671.60438273 Ry
     xc contribution           =    -448.01052477 Ry
     ewald contribution        =    9787.70910919 Ry
     one-center paw contrib.   =    -266.52021758 Ry
     electrostatic embedding   =      -0.09232327 Ry
     cavitation energy         =       0.02102350 Ry
     PV energy                 =      -0.08162419 Ry
     correction to one-el term =     184.88872666 Ry

     WARNING: you are using the parabolic pbc correction;
              the potential shift above must be added to 
              band and Fermi energies.

     convergence has been achieved in  41 iterations

     negative rho (up, down):  1.341E-04 0.000E+00

     Forces acting on atoms (cartesian axes, Ry/au):

     atom    1 type  1   force =     0.00011727    0.00000000   -0.00048914
     atom    2 type  1   force =    -0.00106352    0.00000000   -0.00315624
     atom    3 type  1   force =     0.00055127    0.00000000    0.00067540
     atom    4 type  1   force =    -0.00028305    0.00000000    0.00168954
     atom    5 type  2   force =     0.00050776    0.00000000    0.00029616
     atom    6 type  2   force =    -0.00123018    0.00000000   -0.00022077
     atom    7 type  1   force =    -0.00064714   -0.00001752    0.00023929
     atom    8 type  1   force =     0.00020861    0.00003776   -0.00037495
     atom    9 type  2   force =    -0.00001207    0.00000000   -0.00111799
     atom   10 type  2   force =    -0.00021011    0.00000000   -0.00155622
     atom   11 type  1   force =    -0.00064714    0.00001752    0.00023929
     atom   12 type  1   force =     0.00020861   -0.00003776   -0.00037495
     atom   13 type  1   force =    -0.00091291    0.00000000   -0.00418787
     atom   14 type  1   force =     0.00016613    0.00000000    0.00107997
     atom   15 type  1   force =    -0.00034059    0.00000000   -0.00305336
     atom   16 type  1   force =    -0.00091471    0.00000000   -0.00010050
     atom   17 type  2   force =    -0.00049094    0.00000000    0.00000000
     atom   18 type  2   force =    -0.00033961    0.00000000    0.00000000
     atom   19 type  1   force =    -0.00165757   -0.00067489    0.00000000
     atom   20 type  1   force =     0.00080105   -0.00050123    0.00000000
     atom   21 type  2   force =     0.00356962    0.00000000    0.00000000
     atom   22 type  2   force =    -0.00317068    0.00000000    0.00000000
     atom   23 type  1   force =    -0.00165757    0.00067489    0.00000000
     atom   24 type  1   force =     0.00080105    0.00050123    0.00000000
     atom   25 type  1   force =    -0.00034059    0.00000000    0.00305336
     atom   26 type  1   force =    -0.00091471    0.00000000    0.00010050
     atom   27 type  1   force =    -0.00091291    0.00000000    0.00418787
     atom   28 type  1   force =     0.00016613    0.00000000   -0.00107997
     atom   29 type  2   force =     0.00050776    0.00000000   -0.00029616
     atom   30 type  2   force =    -0.00123018    0.00000000    0.00022077
     atom   31 type  1   force =    -0.00064714   -0.00001752   -0.00023929
     atom   32 type  1   force =     0.00020861    0.00003776    0.00037495
     atom   33 type  2   force =    -0.00001207    0.00000000    0.00111799
     atom   34 type  2   force =    -0.00021011    0.00000000    0.00155622
     atom   35 type  1   force =    -0.00064714    0.00001752   -0.00023929
     atom   36 type  1   force =     0.00020861   -0.00003776    0.00037495
     atom   37 type  1   force =     0.00055127    0.00000000   -0.00067540
     atom   38 type  1   force =    -0.00028305    0.00000000   -0.00168954
     atom   39 type  1   force =     0.00011727    0.00000000    0.00048914
     atom   40 type  1   force =    -0.00106352    0.00000000    0.00315624
     atom   41 type  3   force =     0.00600280    0.00000000    0.00054255
     atom   42 type  3   force =     0.00600280    0.00000000   -0.00054255
     atom   43 type  3   force =    -0.00021435   -0.00277489   -0.00000856
     atom   44 type  3   force =    -0.00021435   -0.00277489    0.00000856
     atom   45 type  3   force =    -0.00021435    0.00277489   -0.00000856
     atom   46 type  3   force =    -0.00021435    0.00277489    0.00000856
     The non-local contrib.  to forces
     atom    1 type  1   force =     1.79397419    0.00000000    0.35577979
     atom    2 type  1   force =     0.01484541    0.00000000    1.13082938
     atom    3 type  1   force =     0.00492847    0.00000000    1.15604349
     atom    4 type  1   force =     0.02630008    0.00000000   -1.46011717
     atom    5 type  2   force =     0.01671616    0.00000000   -0.02090943
     atom    6 type  2   force =    -0.01294898    0.00000000   -0.01550377
     atom    7 type  1   force =     0.00103200   -0.05054272   -0.06601830
     atom    8 type  1   force =    -0.04453268   -0.03714123   -0.02204877
     atom    9 type  2   force =     0.00747666    0.00000000    0.04095047
     atom   10 type  2   force =    -0.00014902    0.00000000   -0.02298486
     atom   11 type  1   force =     0.00103200    0.05054272   -0.06601830
     atom   12 type  1   force =    -0.04453268    0.03714123   -0.02204877
     atom   13 type  1   force =     0.01264132    0.00000000   -0.20896723
     atom   14 type  1   force =     0.01016776    0.00000000    0.10268917
     atom   15 type  1   force =    -0.00520551    0.00000000    0.00570265
     atom   16 type  1   force =     0.00225067    0.00000000    0.15587045
     atom   17 type  2   force =     0.00567328    0.00000000    0.00000000
     atom   18 type  2   force =     0.00509886    0.00000000    0.00000000
     atom   19 type  1   force =    -0.00564530    0.04381291    0.00000000
     atom   20 type  1   force =    -0.00298431    0.04313054    0.00000000
     atom   21 type  2   force =    -0.00839939    0.00000000    0.00000000
     atom   22 type  2   force =     0.00518592    0.00000000    0.00000000
     atom   23 type  1   force =    -0.00564530   -0.04381291    0.00000000
     atom   24 type  1   force =    -0.00298431   -0.04313054    0.00000000
     atom   25 type  1   force =    -0.00520551    0.00000000   -0.00570265
     atom   26 type  1   force =     0.00225067    0.00000000   -0.15587045
     atom   27 type  1   force =     0.01264132    0.00000000    0.20896723
     atom   28 type  1   force =     0.01016776    0.00000000   -0.10268917
     atom   29 type  2   force =     0.01671616    0.00000000    0.02090943
     atom   30 type  2   force =    -0.01294898    0.00000000    0.01550377
     atom   31 type  1   force =     0.00103200   -0.05054272    0.06601830
     atom   32 type  1   force =    -0.04453268   -0.03714123    0.02204877
     atom   33 type  2   force =     0.00747666    0.00000000   -0.04095047
     atom   34 type  2   force =    -0.00014902    0.00000000    0.02298486
     atom   35 type  1   force =     0.00103200    0.05054272    0.06601830
     atom   36 type  1   force =    -0.04453268    0.03714123    0.02204877
     atom   37 type  1   force =     0.00492847    0.00000000   -1.15604349
     atom   38 type  1   force =     0.02630008    0.00000000    1.46011717
     atom   39 type  1   force =     1.79397419    0.00000000   -0.35577979
     atom   40 type  1   force =     0.01484541    0.00000000   -1.13082938
     atom   41 type  3   force =    -0.09925736    0.00000000    0.03945595
     atom   42 type  3   force =    -0.09925736    0.00000000   -0.03945595
     atom   43 type  3   force =    -0.00076349   -0.08684220    0.06399422
     atom   44 type  3   force =    -0.00076349   -0.08684220   -0.06399422
     atom   45 type  3   force =    -0.00076349    0.08684220    0.06399422
     atom   46 type  3   force =    -0.00076349    0.08684220   -0.06399422
     The ionic contribution  to forces
     atom    1 type  1   force =    -3.39187356    0.00000016  -95.62627208
     atom    2 type  1   force =     0.05129478    0.00000018  -99.20622797
     atom    3 type  1   force =    -0.08838653   -0.00000035  -94.96111144
     atom    4 type  1   force =    -0.00434014   -0.00000024  -88.58624870
     atom    5 type  2   force =     6.64044710   -0.00000268 -170.91321872
     atom    6 type  2   force =    -6.39614681   -0.00000267 -171.13328475
     atom    7 type  1   force =     1.09913693   -0.91914295  -62.57711348
     atom    8 type  1   force =    -0.88388777   -1.02659098  -63.56068440
     atom    9 type  2   force =    -0.50276544    0.00000342 -168.91252594
     atom   10 type  2   force =     0.57847334    0.00000313 -170.78016026
     atom   11 type  1   force =     1.09913695    0.91914359  -62.57711082
     atom   12 type  1   force =    -0.88388778    1.02659163  -63.56068182
     atom   13 type  1   force =    -0.14956765   -0.00000206  -36.56629930
     atom   14 type  1   force =    -0.03681917   -0.00000205  -39.93210950
     atom   15 type  1   force =    -0.10517015    0.00001011  -25.36758480
     atom   16 type  1   force =     0.11931773    0.00000982  -26.69620880
     atom   17 type  2   force =     0.01875251    0.00001165   -0.00046512
     atom   18 type  2   force =     0.14069761    0.00001336   -0.00042825
     atom   19 type  1   force =     0.24567454    1.02399824   -0.00008092
     atom   20 type  1   force =    -0.26825560    1.05027164   -0.00008001
     atom   21 type  2   force =     1.43201543    0.00011230   -0.00025515
     atom   22 type  2   force =    -1.64424674    0.00011243   -0.00025061
     atom   23 type  1   force =     0.24567158   -1.02414111   -0.00008092
     atom   24 type  1   force =    -0.26825454   -1.05041463   -0.00008001
     atom   25 type  1   force =    -0.10517113    0.00001011   25.36737459
     atom   26 type  1   force =     0.11932105    0.00000982   26.69603282
     atom   27 type  1   force =    -0.14956870   -0.00000206   36.56662055
     atom   28 type  1   force =    -0.03681868   -0.00000205   39.93238883
     atom   29 type  2   force =     6.64033072   -0.00000268  170.91350659
     atom   30 type  2   force =    -6.39603335   -0.00000267  171.13357305
     atom   31 type  1   force =     1.09913323   -0.91917203   62.57717926
     atom   32 type  1   force =    -0.88388321   -1.02661689   63.56075352
     atom   33 type  2   force =    -0.50277857    0.00000342  168.91265584
     atom   34 type  2   force =     0.57847972    0.00000313  170.78031581
     atom   35 type  1   force =     1.09913325    0.91917267   62.57717660
     atom   36 type  1   force =    -0.88388322    1.02661754   63.56075094
     atom   37 type  1   force =    -0.08838720   -0.00000035   94.96121728
     atom   38 type  1   force =    -0.00433915   -0.00000024   88.58622505
     atom   39 type  1   force =    -3.39195189    0.00000016   95.62638343
     atom   40 type  1   force =     0.05129777    0.00000018   99.20629841
     atom   41 type  3   force =     2.80076219    0.00000002  -16.35204806
     atom   42 type  3   force =     2.80084216    0.00000002   16.35205644
     atom   43 type  3   force =     0.05162389    2.33001833  -16.90383505
     atom   44 type  3   force =     0.05162527    2.33023697   16.90388645
     atom   45 type  3   force =     0.05162389   -2.33001836  -16.90383502
     atom   46 type  3   force =     0.05162527   -2.33023700   16.90388642
     The local contribution  to forces
     atom    1 type  1   force =     1.53285448   -0.00000000   95.19646218
     atom    2 type  1   force =    -0.01702706    0.00000000   98.05947402
     atom    3 type  1   force =     0.06913976    0.00000000   93.74475259
     atom    4 type  1   force =    -0.00933528    0.00000000   90.20838943
     atom    5 type  2   force =    -6.73586874   -0.00000000  170.96589764
     atom    6 type  2   force =     6.48710186    0.00000000  171.15522687
     atom    7 type  1   force =    -1.12290039    0.97687289   62.64677930
     atom    8 type  1   force =     0.95166287    1.07580753   63.56695331
     atom    9 type  2   force =     0.46591385    0.00000000  168.79799401
     atom   10 type  2   force =    -0.54867883    0.00000000  170.81667212
     atom   11 type  1   force =    -1.12290039   -0.97687289   62.64677930
     atom   12 type  1   force =     0.95166287   -1.07580753   63.56695331
     atom   13 type  1   force =     0.13391248    0.00000000   36.76195103
     atom   14 type  1   force =     0.02917296    0.00000000   39.84293514
     atom   15 type  1   force =     0.10844251    0.00000000   25.35397385
     atom   16 type  1   force =    -0.12090476   -0.00000000   26.54323860
     atom   17 type  2   force =    -0.02688810    0.00000000   -0.00580645
     atom   18 type  2   force =    -0.14417090    0.00000000   -0.00590406
     atom   19 type  1   force =    -0.24422426   -1.06791954   -0.00245085
     atom   20 type  1   force =     0.27448536   -1.09325875   -0.00245275
     atom   21 type  2   force =    -1.42591722    0.00000000   -0.00601495
     atom   22 type  2   force =     1.64181034    0.00000000   -0.00602251
     atom   23 type  1   force =    -0.24422140    1.06756228   -0.00245085
     atom   24 type  1   force =     0.27448424    1.09290163   -0.00245275
     atom   25 type  1   force =     0.10844274    0.00000000  -25.35573731
     atom   26 type  1   force =    -0.12089976    0.00000000  -26.54500130
     atom   27 type  1   force =     0.13391376    0.00000000  -36.76368640
     atom   28 type  1   force =     0.02917676   -0.00000000  -39.84474823
     atom   29 type  2   force =    -6.73590233    0.00000000 -170.97194879
     atom   30 type  2   force =     6.48713669   -0.00000000 -171.16127236
     atom   31 type  1   force =    -1.12288468    0.97689131  -62.64922193
     atom   32 type  1   force =     0.95164767    1.07582298  -63.56940631
     atom   33 type  2   force =     0.46591430   -0.00000000 -168.80384716
     atom   34 type  2   force =    -0.54870357    0.00000000 -170.82240143
     atom   35 type  1   force =    -1.12288468   -0.97689131  -62.64922193
     atom   36 type  1   force =     0.95164767   -1.07582298  -63.56940631
     atom   37 type  1   force =     0.06914012    0.00000000  -93.74855679
     atom   38 type  1   force =    -0.00934029    0.00000000  -90.21206293
     atom   39 type  1   force =     1.53288133    0.00000000  -95.19801527
     atom   40 type  1   force =    -0.01705743    0.00000000  -98.06090949
     atom   41 type  3   force =    -2.71612547   -0.00000000   16.31527016
     atom   42 type  3   force =    -2.71612547   -0.00000000  -16.31527016
     atom   43 type  3   force =    -0.04850502   -2.23651814   16.88868456
     atom   44 type  3   force =    -0.04850502   -2.23651814  -16.88868456
     atom   45 type  3   force =    -0.04850502    2.23651814   16.88868456
     atom   46 type  3   force =    -0.04850502    2.23651814  -16.88868456
     The core correction contribution to forces
     atom    1 type  1   force =    -0.01801890   -0.00000000   -0.00384122
     atom    2 type  1   force =    -0.00002118    0.00000000   -0.00995066
     atom    3 type  1   force =    -0.00006261    0.00000000   -0.01166726
     atom    4 type  1   force =    -0.00025080    0.00000000    0.01362717
     atom    5 type  2   force =     0.00000000    0.00000000    0.00000000
     atom    6 type  2   force =     0.00000000    0.00000000    0.00000000
     atom    7 type  1   force =    -0.00021273    0.00001626    0.00065694
     atom    8 type  1   force =     0.00065456   -0.00001020    0.00021785
     atom    9 type  2   force =     0.00000000    0.00000000    0.00000000
     atom   10 type  2   force =     0.00000000    0.00000000    0.00000000
     atom   11 type  1   force =    -0.00021273   -0.00001626    0.00065694
     atom   12 type  1   force =     0.00065456    0.00001020    0.00021785
     atom   13 type  1   force =    -0.00012589   -0.00000000    0.00244783
     atom   14 type  1   force =    -0.00008962    0.00000000   -0.00115791
     atom   15 type  1   force =     0.00008392   -0.00000000   -0.00021435
     atom   16 type  1   force =    -0.00003655    0.00000000   -0.00223278
     atom   17 type  2   force =     0.00000000    0.00000000    0.00000000
     atom   18 type  2   force =     0.00000000    0.00000000    0.00000000
     atom   19 type  1   force =     0.00017323   -0.00014833   -0.00000200
     atom   20 type  1   force =    -0.00005804   -0.00012957   -0.00000202
     atom   21 type  2   force =     0.00000000    0.00000000    0.00000000
     atom   22 type  2   force =     0.00000000    0.00000000    0.00000000
     atom   23 type  1   force =     0.00017324    0.00014777   -0.00000200
     atom   24 type  1   force =    -0.00005804    0.00012901   -0.00000202
     atom   25 type  1   force =     0.00008389   -0.00000000    0.00021218
     atom   26 type  1   force =    -0.00003651    0.00000000    0.00223077
     atom   27 type  1   force =    -0.00012591    0.00000000   -0.00245018
     atom   28 type  1   force =    -0.00008962    0.00000000    0.00115562
     atom   29 type  2   force =     0.00000000    0.00000000    0.00000000
     atom   30 type  2   force =     0.00000000    0.00000000    0.00000000
     atom   31 type  1   force =    -0.00021277    0.00001629   -0.00065874
     atom   32 type  1   force =     0.00065460   -0.00001011   -0.00021968
     atom   33 type  2   force =     0.00000000    0.00000000    0.00000000
     atom   34 type  2   force =     0.00000000    0.00000000    0.00000000
     atom   35 type  1   force =    -0.00021277   -0.00001629   -0.00065874
     atom   36 type  1   force =     0.00065460    0.00001011   -0.00021968
     atom   37 type  1   force =    -0.00006258   -0.00000000    0.01166350
     atom   38 type  1   force =    -0.00025080   -0.00000000   -0.01363092
     atom   39 type  1   force =    -0.01801969   -0.00000000    0.00383884
     atom   40 type  1   force =    -0.00002132   -0.00000000    0.00994864
     atom   41 type  3   force =     0.00000000    0.00000000    0.00000000
     atom   42 type  3   force =     0.00000000    0.00000000    0.00000000
     atom   43 type  3   force =     0.00000000    0.00000000    0.00000000
     atom   44 type  3   force =     0.00000000    0.00000000    0.00000000
     atom   45 type  3   force =     0.00000000    0.00000000    0.00000000
     atom   46 type  3   force =     0.00000000    0.00000000    0.00000000
     The Hubbard contrib.    to forces
     atom    1 type  1   force =     0.00000000    0.00000000    0.00000000
     atom    2 type  1   force =     0.00000000    0.00000000    0.00000000
     atom    3 type  1   force =     0.00000000    0.00000000    0.00000000
     atom    4 type  1   force =     0.00000000    0.00000000    0.00000000
     atom    5 type  2   force =     0.00000000    0.00000000    0.00000000
     atom    6 type  2   force =     0.00000000    0.00000000    0.00000000
     atom    7 type  1   force =     0.00000000    0.00000000    0.00000000
     atom    8 type  1   force =     0.00000000    0.00000000    0.00000000
     atom    9 type  2   force =     0.00000000    0.00000000    0.00000000
     atom   10 type  2   force =     0.00000000    0.00000000    0.00000000
     atom   11 type  1   force =     0.00000000    0.00000000    0.00000000
     atom   12 type  1   force =     0.00000000    0.00000000    0.00000000
     atom   13 type  1   force =     0.00000000    0.00000000    0.00000000
     atom   14 type  1   force =     0.00000000    0.00000000    0.00000000
     atom   15 type  1   force =     0.00000000    0.00000000    0.00000000
     atom   16 type  1   force =     0.00000000    0.00000000    0.00000000
     atom   17 type  2   force =     0.00000000    0.00000000    0.00000000
     atom   18 type  2   force =     0.00000000    0.00000000    0.00000000
     atom   19 type  1   force =     0.00000000    0.00000000    0.00000000
     atom   20 type  1   force =     0.00000000    0.00000000    0.00000000
     atom   21 type  2   force =     0.00000000    0.00000000    0.00000000
     atom   22 type  2   force =     0.00000000    0.00000000    0.00000000
     atom   23 type  1   force =     0.00000000    0.00000000    0.00000000
     atom   24 type  1   force =     0.00000000    0.00000000    0.00000000
     atom   25 type  1   force =     0.00000000    0.00000000    0.00000000
     atom   26 type  1   force =     0.00000000    0.00000000    0.00000000
     atom   27 type  1   force =     0.00000000    0.00000000    0.00000000
     atom   28 type  1   force =     0.00000000    0.00000000    0.00000000
     atom   29 type  2   force =     0.00000000    0.00000000    0.00000000
     atom   30 type  2   force =     0.00000000    0.00000000    0.00000000
     atom   31 type  1   force =     0.00000000    0.00000000    0.00000000
     atom   32 type  1   force =     0.00000000    0.00000000    0.00000000
     atom   33 type  2   force =     0.00000000    0.00000000    0.00000000
     atom   34 type  2   force =     0.00000000    0.00000000    0.00000000
     atom   35 type  1   force =     0.00000000    0.00000000    0.00000000
     atom   36 type  1   force =     0.00000000    0.00000000    0.00000000
     atom   37 type  1   force =     0.00000000    0.00000000    0.00000000
     atom   38 type  1   force =     0.00000000    0.00000000    0.00000000
     atom   39 type  1   force =     0.00000000    0.00000000    0.00000000
     atom   40 type  1   force =     0.00000000    0.00000000    0.00000000
     atom   41 type  3   force =     0.00000000    0.00000000    0.00000000
     atom   42 type  3   force =     0.00000000    0.00000000    0.00000000
     atom   43 type  3   force =     0.00000000    0.00000000    0.00000000
     atom   44 type  3   force =     0.00000000    0.00000000    0.00000000
     atom   45 type  3   force =     0.00000000    0.00000000    0.00000000
     atom   46 type  3   force =     0.00000000    0.00000000    0.00000000
     The SCF correction term to forces
     atom    1 type  1   force =     0.00001086   -0.00000002    0.00001834
     atom    2 type  1   force =    -0.00000926   -0.00000002    0.00001319
     atom    3 type  1   force =     0.00001151    0.00000003    0.00001389
     atom    4 type  1   force =    -0.00000687    0.00000002    0.00000559
     atom    5 type  2   force =    -0.00000115    0.00000013    0.00001719
     atom    6 type  2   force =     0.00000486    0.00000012    0.00002211
     atom    7 type  1   force =    -0.00001199   -0.00000633    0.00000935
     atom    8 type  1   force =     0.00001189    0.00000180    0.00001381
     atom    9 type  2   force =     0.00001217   -0.00000012    0.00002140
     atom   10 type  2   force =    -0.00001168   -0.00000012    0.00004979
     atom   11 type  1   force =    -0.00001199    0.00000630    0.00000933
     atom   12 type  1   force =     0.00001189   -0.00000184    0.00001379
     atom   13 type  1   force =     0.00000853    0.00000006   -0.00000308
     atom   14 type  1   force =    -0.00000810    0.00000006    0.00000411
     atom   15 type  1   force =    -0.00000446   -0.00000006    0.00000630
     atom   16 type  1   force =     0.00000409   -0.00000006    0.00001865
     atom   17 type  2   force =     0.00000235    0.00000019    0.00001407
     atom   18 type  2   force =    -0.00000230    0.00000019    0.00001388
     atom   19 type  1   force =     0.00000412    0.00000787    0.00000511
     atom   20 type  1   force =    -0.00000422    0.00001666    0.00000512
     atom   21 type  2   force =    -0.00000153   -0.00000020    0.00001357
     atom   22 type  2   force =     0.00000155   -0.00000020    0.00001358
     atom   23 type  1   force =     0.00000412   -0.00000782    0.00000511
     atom   24 type  1   force =    -0.00000422   -0.00001660    0.00000512
     atom   25 type  1   force =    -0.00000447   -0.00000006    0.00000194
     atom   26 type  1   force =     0.00000410   -0.00000006   -0.00001081
     atom   27 type  1   force =     0.00000850    0.00000006    0.00000834
     atom   28 type  1   force =    -0.00000806    0.00000005    0.00000095
     atom   29 type  2   force =    -0.00000127    0.00000013   -0.00001825
     atom   30 type  2   force =     0.00000495    0.00000012   -0.00002321
     atom   31 type  1   force =    -0.00001214   -0.00000650   -0.00000954
     atom   32 type  1   force =     0.00001202    0.00000162   -0.00001408
     atom   33 type  2   force =     0.00001213   -0.00000012   -0.00002241
     atom   34 type  2   force =    -0.00001160   -0.00000012   -0.00005165
     atom   35 type  1   force =    -0.00001214    0.00000647   -0.00000952
     atom   36 type  1   force =     0.00001202   -0.00000166   -0.00001406
     atom   37 type  1   force =     0.00001148    0.00000003   -0.00001726
     atom   38 type  1   force =    -0.00000683    0.00000002   -0.00000916
     atom   39 type  1   force =     0.00001078   -0.00000002   -0.00002193
     atom   40 type  1   force =    -0.00000922   -0.00000002   -0.00001668
     atom   41 type  3   force =    -0.00000153   -0.00000000    0.00000233
     atom   42 type  3   force =    -0.00000150   -0.00000000   -0.00000284
     atom   43 type  3   force =    -0.00000074   -0.00000210    0.00000156
     atom   44 type  3   force =    -0.00000074   -0.00000210   -0.00000207
     atom   45 type  3   force =    -0.00000074    0.00000210    0.00000156
     atom   46 type  3   force =    -0.00000074    0.00000210   -0.00000207

     Total force =     0.015449     Total SCF correction =     0.000127

     BFGS Geometry Optimization
     Energy error            =      0.0E+00 Ry
     Gradient error          =      6.0E-03 Ry/Bohr

     number of scf cycles    =   1
     number of bfgs steps    =   0

     energy             new  =   -3435.1510095062 Ry

     new trust radius        =       0.0060272665 bohr
     new conv_thr            =       0.0000000010 Ry


ATOMIC_POSITIONS (crystal)
O            -0.0030742023        0.5000000000        0.2697549503
O             0.4847816264        0.5000000000        0.2734151380
O            -0.0002635258        0.0000000000        0.3072420823
O             0.5002514723        0.0000000000        0.2893976583
Ru            0.2378937097        0.0000000000        0.3580493213
Ru            0.7606814138        0.0000000000        0.3578139256
O             0.2474026529        0.3098069793        0.3586191846
O             0.7507318907        0.3108769530        0.3574549611
Ru           -0.0002389493        0.5000000000        0.3575615774
Ru            0.5007219231        0.5000000000        0.3534540293
O             0.2474026529        0.6901930207        0.3586191846
O             0.7507318907        0.6891230470        0.3574549611
O            -0.0005211457        0.0000000000        0.4122055747
O             0.5006585935        0.0000000000        0.4108538377
O            -0.0005454956        0.5000000000        0.4461936670
O             0.4984303570        0.5000000000        0.4433983668
Ru            0.0004199292        0.0000000000        0.5000010000
Ru            0.5005309586        0.0000000000        0.5000010000
O             0.2525748218        0.1880381257        0.5000010000
O             0.7491472703        0.1881717021        0.5000010000
Ru            0.2508894781        0.5000000000        0.5000010000
Ru            0.7476245406        0.5000000000        0.5000010000
O             0.2525748218        0.8119628743        0.5000010000
O             0.7491472703        0.8118292979        0.5000010000
O            -0.0005454956        0.5000000000        0.5538073330
O             0.4984303570        0.5000000000        0.5566026332
O            -0.0005211457        0.0000000000        0.5877954253
O             0.5006585935        0.0000000000        0.5891471623
Ru            0.2378937097        0.0000000000        0.6419516787
Ru            0.7606814138        0.0000000000        0.6421870744
O             0.2474026529        0.3098069793        0.6413818154
O             0.7507318907        0.3108769530        0.6425460389
Ru           -0.0002389493        0.5000000000        0.6424394226
Ru            0.5007219231        0.5000000000        0.6465469707
O             0.2474026529        0.6901930207        0.6413818154
O             0.7507318907        0.6891230470        0.6425460389
O            -0.0002635258        0.0000000000        0.6927599177
O             0.5002514723        0.0000000000        0.7106043417
O            -0.0030742023        0.5000000000        0.7302460497
O             0.4847816264        0.5000000000        0.7265858620
H             0.1387406043        0.5000000000        0.2542765593
H             0.1387406043        0.5000000000        0.7457234407
H             0.5011974932        0.1303650749        0.2627181846
H             0.5011974932        0.1303650749        0.7372818154
H             0.5011974932        0.8696349251        0.2627181846
H             0.5011974932        0.8696349251        0.7372818154



     Writing config-only to output data dir /storage/home/mgm6007/ixd4/Maria/Strain2_Files/RuO2-110-0-035/RuO2-110-0-035.save/
     NEW-OLD atomic charge density approx. for the potential

     Check: negative core charge=   -0.000001

     negative rho (up, down):  1.340E-04 0.000E+00

     add environment contribution to local potential
     Polarization accuracy = 2.3E-12, # of iterations =  43

     total cpu time spent up to now is     7370.3 secs

     per-process dynamical memory:   205.0 Mb

     Self-consistent Calculation

     iteration #  1     ecut=    50.00 Ry     beta= 0.70
     Davidson diagonalization with overlap
     ethr =  1.00E-06,  avg # of iterations =  3.0

     Threshold (ethr) on eigenvalues was too large:
     Diagonalizing with lowered threshold

     Davidson diagonalization with overlap
     ethr =  2.59E-08,  avg # of iterations =  2.0

     negative rho (up, down):  1.457E-04 0.000E+00

     add environment contribution to local potential
     Polarization accuracy = 4.2E-12, # of iterations =  43

     total cpu time spent up to now is     7519.9 secs

     total energy              =   -3435.15117108 Ry
     estimated scf accuracy    <       0.00009602 Ry
     electrostatic embedding   =      -0.09241355 Ry
     cavitation energy         =       0.02102603 Ry
     PV energy                 =      -0.08162640 Ry
     correction to one-el term =     184.87705207 Ry

     iteration #  2     ecut=    50.00 Ry     beta= 0.70
     Davidson diagonalization with overlap
     ethr =  2.62E-08,  avg # of iterations =  2.0

     negative rho (up, down):  1.462E-04 0.000E+00

     add environment contribution to local potential
     Polarization accuracy = 4.3E-12, # of iterations =  43

     total cpu time spent up to now is     7674.1 secs

     total energy              =   -3435.15117984 Ry
     estimated scf accuracy    <       0.00017421 Ry
     electrostatic embedding   =      -0.09244923 Ry
     cavitation energy         =       0.02102476 Ry
     PV energy                 =      -0.08162693 Ry
     correction to one-el term =     184.87686124 Ry

     iteration #  3     ecut=    50.00 Ry     beta= 0.70
     Davidson diagonalization with overlap
     ethr =  2.62E-08,  avg # of iterations =  1.0

     negative rho (up, down):  1.499E-04 0.000E+00

     add environment contribution to local potential
     Polarization accuracy = 4.6E-12, # of iterations =  43

     total cpu time spent up to now is     7839.4 secs

     total energy              =   -3435.15118940 Ry
     estimated scf accuracy    <       0.00000906 Ry
     electrostatic embedding   =      -0.09246587 Ry
     cavitation energy         =       0.02102478 Ry
     PV energy                 =      -0.08162722 Ry
     correction to one-el term =     184.87703997 Ry

     iteration #  4     ecut=    50.00 Ry     beta= 0.70
     Davidson diagonalization with overlap
     ethr =  2.47E-09,  avg # of iterations =  2.0

     negative rho (up, down):  1.526E-04 0.000E+00

     add environment contribution to local potential
     Polarization accuracy = 3.6E-12, # of iterations =  43

     total cpu time spent up to now is     7976.9 secs

     total energy              =   -3435.15119034 Ry
     estimated scf accuracy    <       0.00000333 Ry
     electrostatic embedding   =      -0.09249519 Ry
     cavitation energy         =       0.02102466 Ry
     PV energy                 =      -0.08162694 Ry
     correction to one-el term =     184.87759174 Ry

     iteration #  5     ecut=    50.00 Ry     beta= 0.70
     Davidson diagonalization with overlap
     ethr =  9.10E-10,  avg # of iterations =  2.0

     negative rho (up, down):  1.543E-04 0.000E+00

     add environment contribution to local potential
     Polarization accuracy = 2.7E-12, # of iterations =  43

     total cpu time spent up to now is     8124.4 secs

     total energy              =   -3435.15119091 Ry
     estimated scf accuracy    <       0.00000194 Ry
     electrostatic embedding   =      -0.09252326 Ry
     cavitation energy         =       0.02102445 Ry
     PV energy                 =      -0.08162712 Ry
     correction to one-el term =     184.87638144 Ry

     iteration #  6     ecut=    50.00 Ry     beta= 0.70
     Davidson diagonalization with overlap
     ethr =  5.30E-10,  avg # of iterations =  2.0

     negative rho (up, down):  1.541E-04 0.000E+00

     add environment contribution to local potential
     Polarization accuracy = 2.3E-12, # of iterations =  43

     total cpu time spent up to now is     8259.3 secs

     total energy              =   -3435.15119134 Ry
     estimated scf accuracy    <       0.00000031 Ry
     electrostatic embedding   =      -0.09254878 Ry
     cavitation energy         =       0.02102438 Ry
     PV energy                 =      -0.08162730 Ry
     correction to one-el term =     184.87512340 Ry

     iteration #  7     ecut=    50.00 Ry     beta= 0.70
     Davidson diagonalization with overlap
     ethr =  8.48E-11,  avg # of iterations =  2.0

     negative rho (up, down):  1.524E-04 0.000E+00

     add environment contribution to local potential
     Polarization accuracy = 3.1E-12, # of iterations =  43

     total cpu time spent up to now is     8409.7 secs

     total energy              =   -3435.15119146 Ry
     estimated scf accuracy    <       0.00000010 Ry
     electrostatic embedding   =      -0.09255951 Ry
     cavitation energy         =       0.02102438 Ry
     PV energy                 =      -0.08162740 Ry
     correction to one-el term =     184.87432840 Ry

     iteration #  8     ecut=    50.00 Ry     beta= 0.70
     Davidson diagonalization with overlap
     ethr =  2.65E-11,  avg # of iterations =  2.0

     negative rho (up, down):  1.501E-04 0.000E+00

     add environment contribution to local potential
     Polarization accuracy = 3.8E-12, # of iterations =  43

     total cpu time spent up to now is     8582.3 secs

     total energy              =   -3435.15119171 Ry
     estimated scf accuracy    <       0.00000005 Ry
     electrostatic embedding   =      -0.09258217 Ry
     cavitation energy         =       0.02102437 Ry
     PV energy                 =      -0.08162770 Ry
     correction to one-el term =     184.87213381 Ry

     iteration #  9     ecut=    50.00 Ry     beta= 0.70
     Davidson diagonalization with overlap
     ethr =  1.37E-11,  avg # of iterations =  2.0

     negative rho (up, down):  1.470E-04 0.000E+00

     add environment contribution to local potential
     Polarization accuracy = 4.2E-12, # of iterations =  43

     total cpu time spent up to now is     8760.7 secs

     total energy              =   -3435.15119183 Ry
     estimated scf accuracy    <       0.00000002 Ry
     electrostatic embedding   =      -0.09259571 Ry
     cavitation energy         =       0.02102439 Ry
     PV energy                 =      -0.08162786 Ry
     correction to one-el term =     184.87075908 Ry

     iteration # 10     ecut=    50.00 Ry     beta= 0.70
     Davidson diagonalization with overlap
     ethr =  6.33E-12,  avg # of iterations =  2.0

     negative rho (up, down):  1.444E-04 0.000E+00

     add environment contribution to local potential
     Polarization accuracy = 4.4E-12, # of iterations =  43

     total cpu time spent up to now is     8919.8 secs

     total energy              =   -3435.15119190 Ry
     estimated scf accuracy    <       0.00000001 Ry
     electrostatic embedding   =      -0.09260659 Ry
     cavitation energy         =       0.02102441 Ry
     PV energy                 =      -0.08162801 Ry
     correction to one-el term =     184.86944609 Ry

     iteration # 11     ecut=    50.00 Ry     beta= 0.70
     Davidson diagonalization with overlap
     ethr =  3.61E-12,  avg # of iterations =  2.0

     negative rho (up, down):  1.419E-04 0.000E+00

     add environment contribution to local potential
     Polarization accuracy = 5.2E-12, # of iterations =  43

     total cpu time spent up to now is     9075.1 secs

     total energy              =   -3435.15119193 Ry
     estimated scf accuracy    <          4.4E-09 Ry
     electrostatic embedding   =      -0.09261297 Ry
     cavitation energy         =       0.02102443 Ry
     PV energy                 =      -0.08162810 Ry
     correction to one-el term =     184.86858126 Ry

     iteration # 12     ecut=    50.00 Ry     beta= 0.70
     Davidson diagonalization with overlap
     ethr =  1.20E-12,  avg # of iterations =  2.0

     negative rho (up, down):  1.394E-04 0.000E+00

     add environment contribution to local potential
     Polarization accuracy = 4.1E-12, # of iterations =  43

     total cpu time spent up to now is     9239.9 secs

     total energy              =   -3435.15119190 Ry
     estimated scf accuracy    <          6.8E-09 Ry
     electrostatic embedding   =      -0.09261484 Ry
     cavitation energy         =       0.02102446 Ry
     PV energy                 =      -0.08162813 Ry
     correction to one-el term =     184.86809432 Ry

     iteration # 13     ecut=    50.00 Ry     beta= 0.70
     Davidson diagonalization with overlap
     ethr =  1.20E-12,  avg # of iterations =  2.0

     negative rho (up, down):  1.368E-04 0.000E+00

     add environment contribution to local potential
     Polarization accuracy = 3.5E-12, # of iterations =  43

[...]
     atom   30 type  2   force =     6.48914686    0.00000000 -171.13482012
     atom   31 type  1   force =    -1.22278051    1.02215154  -61.81871397
     atom   32 type  1   force =     0.80901791    1.02286893  -64.31621604
     atom   33 type  2   force =     1.57996668    0.00000000 -168.91892464
     atom   34 type  2   force =    -1.32599296    0.00000000 -170.69140451
     atom   35 type  1   force =    -1.22278051   -1.02215154  -61.81871397
     atom   36 type  1   force =     0.80901791   -1.02286893  -64.31621604
     atom   37 type  1   force =     0.22797452    0.00000000  -93.64295300
     atom   38 type  1   force =    -0.16311973    0.00000000  -90.10709738
     atom   39 type  1   force =     1.79053378    0.00000000  -95.30843403
     atom   40 type  1   force =    -0.27546148    0.00000000  -97.84482311
     atom   41 type  3   force =    -2.59891205   -0.00000000   16.14568016
     atom   42 type  3   force =    -2.59891205   -0.00000000  -16.14568016
     atom   43 type  3   force =    -0.06210983   -2.22373156   16.90821575
     atom   44 type  3   force =    -0.06210983   -2.22373156  -16.90821575
     atom   45 type  3   force =    -0.06210983    2.22373156   16.90821575
     atom   46 type  3   force =    -0.06210983    2.22373156  -16.90821575
     The core correction contribution to forces
     atom    1 type  1   force =    -0.01710617    0.00000000   -0.00552257
     atom    2 type  1   force =    -0.00012581   -0.00000000   -0.00998711
     atom    3 type  1   force =    -0.00004605   -0.00000000   -0.01172499
     atom    4 type  1   force =    -0.00006204    0.00000000    0.01357535
     atom    5 type  2   force =     0.00000000    0.00000000    0.00000000
     atom    6 type  2   force =     0.00000000    0.00000000    0.00000000
     atom    7 type  1   force =    -0.00000052    0.00002485    0.00089330
     atom    8 type  1   force =     0.00081775   -0.00000234   -0.00003795
     atom    9 type  2   force =     0.00000000    0.00000000    0.00000000
     atom   10 type  2   force =     0.00000000    0.00000000    0.00000000
     atom   11 type  1   force =    -0.00000052   -0.00002485    0.00089330
     atom   12 type  1   force =     0.00081775    0.00000234   -0.00003795
     atom   13 type  1   force =    -0.00013527   -0.00000000    0.00240788
     atom   14 type  1   force =    -0.00008345   -0.00000000   -0.00113872
     atom   15 type  1   force =     0.00018033   -0.00000000   -0.00030893
     atom   16 type  1   force =    -0.00012712    0.00000000   -0.00218622
     atom   17 type  2   force =     0.00000000    0.00000000    0.00000000
     atom   18 type  2   force =     0.00000000    0.00000000    0.00000000
     atom   19 type  1   force =     0.00009014   -0.00017839   -0.00000200
     atom   20 type  1   force =    -0.00006077   -0.00010337   -0.00000202
     atom   21 type  2   force =     0.00000000    0.00000000    0.00000000
     atom   22 type  2   force =     0.00000000    0.00000000    0.00000000
     atom   23 type  1   force =     0.00009015    0.00017782   -0.00000200
     atom   24 type  1   force =    -0.00006077    0.00010281   -0.00000202
     atom   25 type  1   force =     0.00018029   -0.00000000    0.00030674
     atom   26 type  1   force =    -0.00012705    0.00000000    0.00218415
     atom   27 type  1   force =    -0.00013528    0.00000000   -0.00241023
     atom   28 type  1   force =    -0.00008346   -0.00000000    0.00113646
     atom   29 type  2   force =     0.00000000    0.00000000    0.00000000
     atom   30 type  2   force =     0.00000000    0.00000000    0.00000000
     atom   31 type  1   force =    -0.00000056    0.00002487   -0.00089508
     atom   32 type  1   force =     0.00081778   -0.00000222    0.00003608
     atom   33 type  2   force =     0.00000000    0.00000000    0.00000000
     atom   34 type  2   force =     0.00000000    0.00000000    0.00000000
     atom   35 type  1   force =    -0.00000056   -0.00002487   -0.00089508
     atom   36 type  1   force =     0.00081778    0.00000222    0.00003608
     atom   37 type  1   force =    -0.00004599   -0.00000000    0.01172120
     atom   38 type  1   force =    -0.00006202   -0.00000000   -0.01357910
     atom   39 type  1   force =    -0.01710690    0.00000000    0.00552031
     atom   40 type  1   force =    -0.00012601    0.00000000    0.00998496
     atom   41 type  3   force =     0.00000000    0.00000000    0.00000000
     atom   42 type  3   force =     0.00000000    0.00000000    0.00000000
     atom   43 type  3   force =     0.00000000    0.00000000    0.00000000
     atom   44 type  3   force =     0.00000000    0.00000000    0.00000000
     atom   45 type  3   force =     0.00000000    0.00000000    0.00000000
     atom   46 type  3   force =     0.00000000    0.00000000    0.00000000
     The Hubbard contrib.    to forces
     atom    1 type  1   force =     0.00000000    0.00000000    0.00000000
     atom    2 type  1   force =     0.00000000    0.00000000    0.00000000
     atom    3 type  1   force =     0.00000000    0.00000000    0.00000000
     atom    4 type  1   force =     0.00000000    0.00000000    0.00000000
     atom    5 type  2   force =     0.00000000    0.00000000    0.00000000
     atom    6 type  2   force =     0.00000000    0.00000000    0.00000000
     atom    7 type  1   force =     0.00000000    0.00000000    0.00000000
     atom    8 type  1   force =     0.00000000    0.00000000    0.00000000
     atom    9 type  2   force =     0.00000000    0.00000000    0.00000000
     atom   10 type  2   force =     0.00000000    0.00000000    0.00000000
     atom   11 type  1   force =     0.00000000    0.00000000    0.00000000
     atom   12 type  1   force =     0.00000000    0.00000000    0.00000000
     atom   13 type  1   force =     0.00000000    0.00000000    0.00000000
     atom   14 type  1   force =     0.00000000    0.00000000    0.00000000
     atom   15 type  1   force =     0.00000000    0.00000000    0.00000000
     atom   16 type  1   force =     0.00000000    0.00000000    0.00000000
     atom   17 type  2   force =     0.00000000    0.00000000    0.00000000
     atom   18 type  2   force =     0.00000000    0.00000000    0.00000000
     atom   19 type  1   force =     0.00000000    0.00000000    0.00000000
     atom   20 type  1   force =     0.00000000    0.00000000    0.00000000
     atom   21 type  2   force =     0.00000000    0.00000000    0.00000000
     atom   22 type  2   force =     0.00000000    0.00000000    0.00000000
     atom   23 type  1   force =     0.00000000    0.00000000    0.00000000
     atom   24 type  1   force =     0.00000000    0.00000000    0.00000000
     atom   25 type  1   force =     0.00000000    0.00000000    0.00000000
     atom   26 type  1   force =     0.00000000    0.00000000    0.00000000
     atom   27 type  1   force =     0.00000000    0.00000000    0.00000000
     atom   28 type  1   force =     0.00000000    0.00000000    0.00000000
     atom   29 type  2   force =     0.00000000    0.00000000    0.00000000
     atom   30 type  2   force =     0.00000000    0.00000000    0.00000000
     atom   31 type  1   force =     0.00000000    0.00000000    0.00000000
     atom   32 type  1   force =     0.00000000    0.00000000    0.00000000
     atom   33 type  2   force =     0.00000000    0.00000000    0.00000000
     atom   34 type  2   force =     0.00000000    0.00000000    0.00000000
     atom   35 type  1   force =     0.00000000    0.00000000    0.00000000
     atom   36 type  1   force =     0.00000000    0.00000000    0.00000000
     atom   37 type  1   force =     0.00000000    0.00000000    0.00000000
     atom   38 type  1   force =     0.00000000    0.00000000    0.00000000
     atom   39 type  1   force =     0.00000000    0.00000000    0.00000000
     atom   40 type  1   force =     0.00000000    0.00000000    0.00000000
     atom   41 type  3   force =     0.00000000    0.00000000    0.00000000
     atom   42 type  3   force =     0.00000000    0.00000000    0.00000000
     atom   43 type  3   force =     0.00000000    0.00000000    0.00000000
     atom   44 type  3   force =     0.00000000    0.00000000    0.00000000
     atom   45 type  3   force =     0.00000000    0.00000000    0.00000000
     atom   46 type  3   force =     0.00000000    0.00000000    0.00000000
     The SCF correction term to forces
     atom    1 type  1   force =     0.00000038    0.00000000   -0.00000050
     atom    2 type  1   force =    -0.00000019    0.00000000   -0.00000067
     atom    3 type  1   force =    -0.00000041    0.00000000   -0.00000028
     atom    4 type  1   force =     0.00000073   -0.00000000   -0.00000136
     atom    5 type  2   force =     0.00000027    0.00000000    0.00000038
     atom    6 type  2   force =    -0.00000090    0.00000000    0.00000003
     atom    7 type  1   force =     0.00000033    0.00000062    0.00000001
     atom    8 type  1   force =    -0.00000040    0.00000012   -0.00000008
     atom    9 type  2   force =    -0.00000014   -0.00000000    0.00000044
     atom   10 type  2   force =    -0.00000002   -0.00000000   -0.00000118
     atom   11 type  1   force =     0.00000033   -0.00000062    0.00000001
     atom   12 type  1   force =    -0.00000040   -0.00000012   -0.00000008
     atom   13 type  1   force =    -0.00000025    0.00000000    0.00000087
     atom   14 type  1   force =     0.00000030    0.00000000    0.00000004
     atom   15 type  1   force =     0.00000021   -0.00000000    0.00000033
     atom   16 type  1   force =    -0.00000016   -0.00000000   -0.00000000
     atom   17 type  2   force =     0.00000008    0.00000000    0.00000005
     atom   18 type  2   force =    -0.00000010    0.00000000    0.00000004
     atom   19 type  1   force =    -0.00000056    0.00000023    0.00000002
     atom   20 type  1   force =     0.00000058   -0.00000006    0.00000002
     atom   21 type  2   force =    -0.00000037   -0.00000000    0.00000005
     atom   22 type  2   force =     0.00000062   -0.00000000    0.00000005
     atom   23 type  1   force =    -0.00000056   -0.00000023    0.00000002
     atom   24 type  1   force =     0.00000058    0.00000006    0.00000002
     atom   25 type  1   force =     0.00000021   -0.00000000   -0.00000028
     atom   26 type  1   force =    -0.00000016   -0.00000000    0.00000004
     atom   27 type  1   force =    -0.00000025    0.00000000   -0.00000082
     atom   28 type  1   force =     0.00000030    0.00000000   -0.00000001
     atom   29 type  2   force =     0.00000026    0.00000000   -0.00000031
     atom   30 type  2   force =    -0.00000090    0.00000000    0.00000003
     atom   31 type  1   force =     0.00000033    0.00000062    0.00000002
     atom   32 type  1   force =    -0.00000040    0.00000012    0.00000010
     atom   33 type  2   force =    -0.00000014   -0.00000000   -0.00000037
     atom   34 type  2   force =    -0.00000002   -0.00000000    0.00000124
     atom   35 type  1   force =     0.00000033   -0.00000062    0.00000002
     atom   36 type  1   force =    -0.00000040   -0.00000012    0.00000010
     atom   37 type  1   force =    -0.00000041    0.00000000    0.00000028
     atom   38 type  1   force =     0.00000074    0.00000000    0.00000136
     atom   39 type  1   force =     0.00000038    0.00000000    0.00000048
     atom   40 type  1   force =    -0.00000019   -0.00000000    0.00000065
     atom   41 type  3   force =     0.00000013   -0.00000000   -0.00000008
     atom   42 type  3   force =     0.00000013    0.00000000    0.00000008
     atom   43 type  3   force =     0.00000003    0.00000002   -0.00000010
     atom   44 type  3   force =     0.00000003    0.00000002    0.00000009
     atom   45 type  3   force =     0.00000003   -0.00000002   -0.00000010
     atom   46 type  3   force =     0.00000003   -0.00000002    0.00000009

     Total force =     0.000942     Total SCF correction =     0.000004
     Energy error            =      2.4E-06 Ry
     Gradient error          =      3.4E-04 Ry/Bohr

     number of scf cycles    =  24
     number of bfgs steps    =  23

     energy             old  =   -3435.1536199038 Ry
     energy             new  =   -3435.1536222659 Ry

     CASE: energy            _new < energy            _old

     new trust radius        =       0.0014650787 bohr
     new conv_thr            =            1.0E-11 Ry


ATOMIC_POSITIONS (crystal)
O             0.0148864669        0.5000000000        0.2694067626
O             0.4753075415        0.5000000000        0.2730817998
O            -0.0005143313        0.0000000000        0.3072367426
O             0.4973649364        0.0000000000        0.2897250219
Ru            0.2363601683        0.0000000000        0.3582981520
Ru            0.7591202850        0.0000000000        0.3575015636
O             0.2474776786        0.3092902845        0.3593446529
O             0.7505913245        0.3113677707        0.3560548843
Ru            0.0007836363        0.5000000000        0.3570135304
Ru            0.5012715867        0.5000000000        0.3531839134
O             0.2474776786        0.6907097155        0.3593446529
O             0.7505913245        0.6886322293        0.3560548843
O            -0.0031237619        0.0000000000        0.4121011981
O             0.5004495827        0.0000000000        0.4109179032
O            -0.0033502813        0.5000000000        0.4458185534
O             0.4957783657        0.5000000000        0.4433129630
Ru           -0.0026750192        0.0000000000        0.5000010000
Ru            0.4979367750        0.0000000000        0.5000010000
O             0.2491439234        0.1878806007        0.5000010000
O             0.7464034062        0.1883295499        0.5000010000
Ru            0.2491236749        0.5000000000        0.5000010000
Ru            0.7458628452        0.5000000000        0.5000010000
O             0.2491439234        0.8121203993        0.5000010000
O             0.7464034062        0.8116714501        0.5000010000
O            -0.0033502813        0.5000000000        0.5541824466
O             0.4957783657        0.5000000000        0.5566880370
O            -0.0031237619        0.0000000000        0.5878998019
O             0.5004495827        0.0000000000        0.5890830968
Ru            0.2363601683        0.0000000000        0.6417028480
Ru            0.7591202850        0.0000000000        0.6424994364
O             0.2474776786        0.3092902845        0.6406563471
O             0.7505913245        0.3113677707        0.6439461157
Ru            0.0007836363        0.5000000000        0.6429874696
Ru            0.5012715867        0.5000000000        0.6468170866
O             0.2474776786        0.6907097155        0.6406563471
O             0.7505913245        0.6886322293        0.6439461157
O            -0.0005143313        0.0000000000        0.6927652574
O             0.4973649364        0.0000000000        0.7102769781
O             0.0148864669        0.5000000000        0.7305942374
O             0.4753075415        0.5000000000        0.7269192002
H             0.1618751765        0.5000000000        0.2578558359
H             0.1618751765        0.5000000000        0.7421441641
H             0.4973080773        0.1296889476        0.2628099898
H             0.4973080773        0.1296889476        0.7371900102
H             0.4973080773        0.8703110524        0.2628099898
H             0.4973080773        0.8703110524        0.7371900102



     Writing config-only to output data dir /storage/home/mgm6007/ixd4/Maria/Strain2_Files/RuO2-110-0-035/RuO2-110-0-035.save/
     NEW-OLD atomic charge density approx. for the potential

     Check: negative core charge=   -0.000001

     negative rho (up, down):  1.355E-04 0.000E+00

     add environment contribution to local potential
     Polarization accuracy = 4.0E-12, # of iterations =  43

     total cpu time spent up to now is   204141.9 secs

     per-process dynamical memory:   229.3 Mb

     Self-consistent Calculation

     iteration #  1     ecut=    50.00 Ry     beta= 0.70
     Davidson diagonalization with overlap
     ethr =  1.00E-06,  avg # of iterations =  2.0

     Threshold (ethr) on eigenvalues was too large:
     Diagonalizing with lowered threshold

     Davidson diagonalization with overlap
     ethr =  4.39E-10,  avg # of iterations =  4.0

     negative rho (up, down):  1.378E-04 0.000E+00

     add environment contribution to local potential
     Polarization accuracy = 5.8E-12, # of iterations =  43

     total cpu time spent up to now is   205080.7 secs

     total energy              =   -3435.15362313 Ry
     estimated scf accuracy    <       0.00000148 Ry
     electrostatic embedding   =      -0.09617293 Ry
     cavitation energy         =       0.02112525 Ry
     PV energy                 =      -0.08149754 Ry
     correction to one-el term =     185.37396297 Ry

     iteration #  2     ecut=    50.00 Ry     beta= 0.70
     Davidson diagonalization with overlap
     ethr =  4.05E-10,  avg # of iterations =  2.0

     negative rho (up, down):  1.383E-04 0.000E+00

     add environment contribution to local potential
     Polarization accuracy = 6.0E-12, # of iterations =  43

     total cpu time spent up to now is   206303.2 secs

     total energy              =   -3435.15362330 Ry
     estimated scf accuracy    <       0.00000204 Ry
     electrostatic embedding   =      -0.09614869 Ry
     cavitation energy         =       0.02112501 Ry
     PV energy                 =      -0.08149910 Ry
     correction to one-el term =     185.37853920 Ry

     iteration #  3     ecut=    50.00 Ry     beta= 0.70
     Davidson diagonalization with overlap
     ethr =  4.05E-10,  avg # of iterations =  1.0

     negative rho (up, down):  1.389E-04 0.000E+00

     add environment contribution to local potential
     Polarization accuracy = 6.4E-12, # of iterations =  43

     total cpu time spent up to now is   207367.1 secs

     total energy              =   -3435.15362347 Ry
     estimated scf accuracy    <       0.00000030 Ry
     electrostatic embedding   =      -0.09614523 Ry
     cavitation energy         =       0.02112495 Ry
     PV energy                 =      -0.08149936 Ry
     correction to one-el term =     185.37903326 Ry

     iteration #  4     ecut=    50.00 Ry     beta= 0.70
     Davidson diagonalization with overlap
     ethr =  8.12E-11,  avg # of iterations =  3.0

     negative rho (up, down):  1.391E-04 0.000E+00

     add environment contribution to local potential
     Polarization accuracy = 6.4E-12, # of iterations =  43

     total cpu time spent up to now is   208423.1 secs

     total energy              =   -3435.15362362 Ry
     estimated scf accuracy    <       0.00000021 Ry
     electrostatic embedding   =      -0.09613889 Ry
     cavitation energy         =       0.02112490 Ry
     PV energy                 =      -0.08149996 Ry
     correction to one-el term =     185.37978336 Ry

     iteration #  5     ecut=    50.00 Ry     beta= 0.70
     Davidson diagonalization with overlap
     ethr =  5.66E-11,  avg # of iterations =  2.0

     negative rho (up, down):  1.389E-04 0.000E+00

     add environment contribution to local potential
     Polarization accuracy = 6.1E-12, # of iterations =  43

     total cpu time spent up to now is   209367.4 secs

     total energy              =   -3435.15362373 Ry
     estimated scf accuracy    <       0.00000003 Ry
     electrostatic embedding   =      -0.09613710 Ry
     cavitation energy         =       0.02112491 Ry
     PV energy                 =      -0.08150021 Ry
     correction to one-el term =     185.38004381 Ry

     iteration #  6     ecut=    50.00 Ry     beta= 0.70
     Davidson diagonalization with overlap
     ethr =  7.37E-12,  avg # of iterations =  2.0

     negative rho (up, down):  1.385E-04 0.000E+00

     add environment contribution to local potential
