
     Program PWSCF v.7.2 starts on 20Jul2023 at 14:58:37 
        Git branch: heads/qe-7.2
        Last git commit: b4c5e8deeb7d1863e7553a87b45f8d22c21926a5
        Last git commit date: Mon Mar 27 16:12:09 2023 +0000
        Last git commit subject: Merge branch 'merge_fix_hubbard' into 'develop'

     This program is part of the open-source Quantum ESPRESSO suite
     for quantum simulation of materials; please cite
         "P. Giannozzi et al., J. Phys.:Condens. Matter 21 395502 (2009);
         "P. Giannozzi et al., J. Phys.:Condens. Matter 29 465901 (2017);
         "P. Giannozzi et al., J. Chem. Phys. 152 154105 (2020);
          URL http://www.quantum-espresso.org", 
     in publications or presentations arising from this work. More details at
     http://www.quantum-espresso.org/quote

     Parallel version (MPI), running on    20 processors

     MPI processes distributed on     1 nodes
     99433 MiB available memory on the printing compute node when the environment starts
 
     Reading input from RuO2-110-0-234.in

     Current dimensions of program PWSCF are:
     Max number of different atomic species (ntypx) = 10
     Max number of k-points (npk) =  40000
     Max angular momentum in pseudopotentials (lmaxx) =  4
 
     Reading input from environ.in:
     * Environ restarting
     * setting up water environment
     * using electronic solvent mode
     * setting boundary derivatives method to SCCS default
     
     file O.pbe-n-kjpaw_psl.0.1.UPF: wavefunction(s)  2P renormalized
     Message from routine setup:
     using ibrav=0 with symmetry is DISCOURAGED, use correct ibrav instead
 
     R & G space division:  proc/nbgrp/npool/nimage =      20
     Subspace diagonalization in iterative solution of the eigenvalue problem:
     one sub-group per band group will be used
     scalapack distributed-memory algorithm (size of sub-group:  2*  2 procs)

 
     Parallelization info
     --------------------
     sticks:   dense  smooth     PW     G-vecs:    dense   smooth      PW
     Min         282     113     29                56190    14217    1913
     Max         283     114     30                56201    14227    1932
     Sum        5657    2263    593              1123933   284439   38425
 
     Using Slab Decomposition
 


     bravais-lattice index     =            0
     lattice parameter (alat)  =      12.1041  a.u.
     unit-cell volume          =    5954.5483 (a.u.)^3
     number of atoms/cell      =           46
     number of atomic types    =            3
     number of electrons       =       366.00
     number of Kohn-Sham states=          220
     kinetic-energy cutoff     =      50.0000  Ry
     charge density cutoff     =     500.0000  Ry
     scf convergence threshold =      1.0E-09
     mixing beta               =       0.7000
     number of iterations used =            8  local-TF  mixing
     energy convergence thresh.=      1.0E-04
     force convergence thresh. =      1.0E-04
     Exchange-correlation= PBE
                           (   1   4   3   4   0   0   0)
     nstep                     =          200


     ================================================================================
 
                                  Environ Setup Summary

     ================================================================================
 
     Please cite

          O. Andreussi, I. Dabo and N. Marzari, J. Chem. Phys. 136, 064102 (2012)

     in publications or presentations arising from this work.

     ================================================================================
 
     Parameters
     ==========

     compensation onset threshold      =               0.1000E+00
     static permittivity               =                    78.30
     surface tension in input (dyn/cm) =                    47.90
     surface tension in internal units =               0.6153E-04
     external pressure in input (GPa)  =                    -0.36
     external pressure in inter. units =              -0.2447E-04

     Solvent Boundary
     ================

     solvent mode                      =               electronic
     derivatives method                =                    chain
     numerical core for derivatives    =                      fft
     switching function adopted        =                     SCCS
     density limit for vacuum region   =               0.5000E-02
     density limit for bulk solvent    =               0.1000E-03

     Electrostatic Setup
     ===================

     electrostatic problem to solve    =              generalized
     numerical solver adopted          =                       cg
     type of auxiliary density adopted =                     none
     numerical core for poisson        =                      fft
     type of pbc corrections           =                parabolic
     numerical core for corrections    =                      1da

     ================================================================================
 

     celldm(1)=  12.104053  celldm(2)=   0.000000  celldm(3)=   0.000000
     celldm(4)=   0.000000  celldm(5)=   0.000000  celldm(6)=   0.000000

     crystal axes: (cart. coord. in units of alat)
               a(1) = (   1.000000   0.000000   0.000000 )  
               a(2) = (   0.000000   0.971735   0.000000 )  
               a(3) = (   0.000000   0.000000   3.455479 )  

     reciprocal axes: (cart. coord. in units 2 pi/alat)
               b(1) = (  1.000000  0.000000  0.000000 )  
               b(2) = (  0.000000  1.029087  0.000000 )  
               b(3) = (  0.000000  0.000000  0.289395 )  


     PseudoPot. # 1 for O  read from file:
     /gpfs/group/ixd4/default/Simon/pseudopotentials/materialscloud/SSSP_1.3.0_PBE_efficiency/O.pbe-n-kjpaw_psl.0.1.UPF
     MD5 check sum: 0234752ac141de4415c5fc33072bef88
     Pseudo is Projector augmented-wave + core cor, Zval =  6.0
     Generated using "atomic" code by A. Dal Corso  v.5.0.99 svn rev. 10869
     Shape of augmentation charge: BESSEL
     Using radial grid of 1095 points,  4 beta functions with: 
                l(1) =   0
                l(2) =   0
                l(3) =   1
                l(4) =   1
     Q(r) pseudized with 0 coefficients 


     PseudoPot. # 2 for Ru read from file:
     /gpfs/group/ixd4/default/Simon/pseudopotentials/materialscloud/SSSP_1.3.0_PBE_efficiency/Ru_ONCV_PBE-1.0.oncvpsp.upf
     MD5 check sum: be037bb81c227cfb9b1461a9f099f4bd
     Pseudo is Norm-conserving, Zval = 16.0
     Generated using ONCVPSP code by D. R. Hamann
     Using radial grid of 1458 points,  6 beta functions with: 
                l(1) =   0
                l(2) =   0
                l(3) =   1
                l(4) =   1
                l(5) =   2
                l(6) =   2

     PseudoPot. # 3 for H  read from file:
     /gpfs/group/ixd4/default/Simon/pseudopotentials/materialscloud/SSSP_1.3.0_PBE_efficiency/H.pbe-rrkjus_psl.1.0.0.UPF
     MD5 check sum: f52b6d4d1c606e5624b1dc7b2218f220
     Pseudo is Ultrasoft, Zval =  1.0
     Generated using "atomic" code by A. Dal Corso  v.5.1
     Using radial grid of  929 points,  2 beta functions with: 
                l(1) =   0
                l(2) =   0
     Q(r) pseudized with 0 coefficients 


     atomic species   valence    mass     pseudopotential
        O              6.00    15.99940     O ( 1.00)
        Ru            16.00   101.07000     Ru( 1.00)
        H              1.00     1.00794     H ( 1.00)

      4 Sym. Ops. (no inversion) found



   Cartesian axes

     site n.     atom                  positions (alat units)
         1           O   tau(   1) = (   0.0000000   0.5634758   0.9572794  )
         2           O   tau(   2) = (   0.5000000   0.4750638   0.9453097  )
         3           O   tau(   3) = (   0.0000000  -0.0358455   1.0157192  )
         4           O   tau(   4) = (   0.5000000   0.0087860   1.0381569  )
         5           Ru  tau(   5) = (   0.2531947   0.0066687   1.2440950  )
         6           Ru  tau(   6) = (   0.7468053   0.0066687   1.2440950  )
         7           O   tau(   7) = (   0.2384386   0.3013993   1.2263289  )
         8           O   tau(   8) = (   0.7615614   0.3013993   1.2263289  )
         9           Ru  tau(   9) = (   0.0000000   0.4886293   1.2250820  )
        10           Ru  tau(  10) = (   0.5000000   0.4994905   1.2139938  )
        11           O   tau(  11) = (   0.2624216   0.6840033   1.2466463  )
        12           O   tau(  12) = (   0.7375784   0.6840033   1.2466463  )
        13           O   tau(  13) = (   0.0000000   0.0017011   1.4225920  )
        14           O   tau(  14) = (   0.5000000   0.0169109   1.4259967  )
        15           O   tau(  15) = (   0.0000000   0.4900650   1.5374213  )
        16           O   tau(  16) = (   0.5000000   0.4836401   1.5313329  )
        17           Ru  tau(  17) = (   0.0000000   0.0032765   1.7277432  )
        18           Ru  tau(  18) = (   0.5000000   0.0044090   1.7277432  )
        19           O   tau(  19) = (   0.2473866   0.1929692   1.7277432  )
        20           O   tau(  20) = (   0.7526134   0.1929692   1.7277432  )
        21           Ru  tau(  21) = (   0.2534607   0.4893872   1.7277432  )
        22           Ru  tau(  22) = (   0.7465393   0.4893872   1.7277432  )
        23           O   tau(  23) = (   0.2521555   0.7849853   1.7277432  )
        24           O   tau(  24) = (   0.7478445   0.7849853   1.7277432  )
        25           O   tau(  25) = (   0.0000000   0.4900650   1.9180617  )
        26           O   tau(  26) = (   0.5000000   0.4836401   1.9241501  )
        27           O   tau(  27) = (   0.0000000   0.0017011   2.0328909  )
        28           O   tau(  28) = (   0.5000000   0.0169109   2.0294862  )
        29           Ru  tau(  29) = (   0.2531947   0.0066687   2.2113880  )
        30           Ru  tau(  30) = (   0.7468053   0.0066687   2.2113880  )
        31           O   tau(  31) = (   0.2384386   0.3013993   2.2291540  )
        32           O   tau(  32) = (   0.7615614   0.3013993   2.2291540  )
        33           Ru  tau(  33) = (   0.0000000   0.4886293   2.2304010  )
        34           Ru  tau(  34) = (   0.5000000   0.4994905   2.2414892  )
        35           O   tau(  35) = (   0.2624216   0.6840033   2.2088366  )
        36           O   tau(  36) = (   0.7375784   0.6840033   2.2088366  )
        37           O   tau(  37) = (   0.0000000  -0.0358455   2.4397672  )
        38           O   tau(  38) = (   0.5000000   0.0087860   2.4173295  )
        39           O   tau(  39) = (   0.0000000   0.5634758   2.4982036  )
        40           O   tau(  40) = (   0.5000000   0.4750638   2.5101733  )
        41           H   tau(  41) = (   0.0000000   0.0476966   0.8902891  )
        42           H   tau(  42) = (   0.0000000   0.0476966   2.5651904  )
        43           H   tau(  43) = (   0.5000000   0.1193703   0.9398139  )
        44           H   tau(  44) = (   0.5000000   0.1193703   2.5156656  )
        45           H   tau(  45) = (   0.0000000   0.7846932   0.9698665  )
        46           H   tau(  46) = (   0.0000000   0.7846932   2.4856130  )

     number of k points=     1  Marzari-Vanderbilt smearing, width (Ry)=  0.0300
                       cart. coord. in units 2pi/alat
        k(    1) = (   0.2500000   0.2572717   0.0000000), wk =   2.0000000

     Dense  grid:  1123933 G-vectors     FFT dimensions: (  90,  90, 300)

     Smooth grid:   284439 G-vectors     FFT dimensions: (  60,  54, 192)

     Estimated max dynamical RAM per process >     172.92 MB

     Estimated total dynamical RAM >       3.38 GB

     Check: negative core charge=   -0.000001

     Initial potential from superposition of free atoms

     starting charge     365.9933, renormalised to     366.0000

     add environment contribution to local potential
     Polarization accuracy = 7.1E-12, # of iterations =  26

     negative rho (up, down):  3.622E-05 0.000E+00
     Starting wfcs are  238 randomized atomic wfcs
     Checking if some PAW data can be deallocated... 

     total cpu time spent up to now is     1098.3 secs

     per-process dynamical memory:   145.1 Mb

     Self-consistent Calculation

     iteration #  1     ecut=    50.00 Ry     beta= 0.70
     Davidson diagonalization with overlap
     ethr =  1.00E-02,  avg # of iterations =  2.0

     negative rho (up, down):  2.031E-08 0.000E+00

     total cpu time spent up to now is     1389.7 secs

     total energy              =   -3432.76303793 Ry
     estimated scf accuracy    <      10.00610613 Ry
     electrostatic embedding   =      -0.00173247 Ry
     cavitation energy         =       0.01989301 Ry
     PV energy                 =      -0.08526542 Ry
     correction to one-el term =     216.04953962 Ry

     iteration #  2     ecut=    50.00 Ry     beta= 0.70
     Davidson diagonalization with overlap
     ethr =  2.73E-03,  avg # of iterations =  2.0

     total cpu time spent up to now is     1706.6 secs

     total energy              =   -3434.88601002 Ry
     estimated scf accuracy    <       2.90370593 Ry
     electrostatic embedding   =      -0.00272428 Ry
     cavitation energy         =       0.01988641 Ry
     PV energy                 =      -0.08586164 Ry
     correction to one-el term =     216.05237914 Ry

     iteration #  3     ecut=    50.00 Ry     beta= 0.70
     Davidson diagonalization with overlap
     ethr =  7.93E-04,  avg # of iterations =  1.0

     total cpu time spent up to now is     1971.2 secs

     total energy              =   -3435.11819275 Ry
     estimated scf accuracy    <       0.44451917 Ry
     electrostatic embedding   =      -0.00321292 Ry
     cavitation energy         =       0.01989818 Ry
     PV energy                 =      -0.08624622 Ry
     correction to one-el term =     216.05378352 Ry

     iteration #  4     ecut=    50.00 Ry     beta= 0.70
     Davidson diagonalization with overlap
     ethr =  1.21E-04,  avg # of iterations =  2.0

     total cpu time spent up to now is     2290.8 secs

     total energy              =   -3435.15570139 Ry
     estimated scf accuracy    <       0.76628147 Ry
     electrostatic embedding   =      -0.00340157 Ry
     cavitation energy         =       0.02012314 Ry
     PV energy                 =      -0.08580318 Ry
     correction to one-el term =     216.05390560 Ry

     iteration #  5     ecut=    50.00 Ry     beta= 0.70
     Davidson diagonalization with overlap
     ethr =  1.21E-04,  avg # of iterations =  1.0

     total cpu time spent up to now is     2643.2 secs

     total energy              =   -3435.14122931 Ry
     estimated scf accuracy    <       0.33541768 Ry
     electrostatic embedding   =      -0.00362326 Ry
     cavitation energy         =       0.02037597 Ry
     PV energy                 =      -0.08537850 Ry
     correction to one-el term =     216.05417624 Ry

     iteration #  6     ecut=    50.00 Ry     beta= 0.70
     Davidson diagonalization with overlap
     ethr =  9.16E-05,  avg # of iterations =  9.0

     total cpu time spent up to now is     2991.6 secs

     total energy              =   -3435.13304900 Ry
     estimated scf accuracy    <       0.20533094 Ry
     electrostatic embedding   =      -0.00380201 Ry
     cavitation energy         =       0.02096087 Ry
     PV energy                 =      -0.08411864 Ry
     correction to one-el term =     216.05399493 Ry

     iteration #  7     ecut=    50.00 Ry     beta= 0.70
     Davidson diagonalization with overlap
     ethr =  5.61E-05,  avg # of iterations =  8.0

     total cpu time spent up to now is     3288.3 secs

     total energy              =   -3435.12714993 Ry
     estimated scf accuracy    <       0.12074449 Ry
     electrostatic embedding   =      -0.00371594 Ry
     cavitation energy         =       0.02140296 Ry
     PV energy                 =      -0.08291949 Ry
     correction to one-el term =     216.05326527 Ry

     iteration #  8     ecut=    50.00 Ry     beta= 0.70
     Davidson diagonalization with overlap
     ethr =  3.30E-05,  avg # of iterations =  1.0

     add environment contribution to local potential
     Polarization accuracy = 8.2E-12, # of iterations =  45

     total cpu time spent up to now is     3629.4 secs

     total energy              =   -3435.12382458 Ry
     estimated scf accuracy    <       0.04404087 Ry
     electrostatic embedding   =      -0.00353065 Ry
     cavitation energy         =       0.02185197 Ry
     PV energy                 =      -0.08184453 Ry
     correction to one-el term =     216.05230902 Ry

     iteration #  9     ecut=    50.00 Ry     beta= 0.70
     Davidson diagonalization with overlap
     ethr =  1.20E-05,  avg # of iterations = 11.0

     negative rho (up, down):  2.090E-05 0.000E+00

     total cpu time spent up to now is     3907.0 secs

     total energy              =   -3435.20331397 Ry
     estimated scf accuracy    <       0.54840717 Ry
     electrostatic embedding   =      -0.07219398 Ry
     cavitation energy         =       0.02211727 Ry
     PV energy                 =      -0.08118363 Ry
     correction to one-el term =     174.38408583 Ry

     iteration # 10     ecut=    50.00 Ry     beta= 0.70
     Davidson diagonalization with overlap
     ethr =  1.20E-05,  avg # of iterations =  1.0

     negative rho (up, down):  6.687E-08 0.000E+00

     total cpu time spent up to now is     4240.8 secs

     total energy              =   -3435.18640789 Ry
     estimated scf accuracy    <       0.35341667 Ry
     electrostatic embedding   =      -0.07261481 Ry
     cavitation energy         =       0.02213804 Ry
     PV energy                 =      -0.08107283 Ry
     correction to one-el term =     174.38554571 Ry

     iteration # 11     ecut=    50.00 Ry     beta= 0.70
     Davidson diagonalization with overlap
     ethr =  1.20E-05,  avg # of iterations =  1.0

     add environment contribution to local potential
     Polarization accuracy = 5.6E-12, # of iterations =  45

     total cpu time spent up to now is     4531.6 secs

     total energy              =   -3435.18265028 Ry
     estimated scf accuracy    <       0.07822449 Ry
     electrostatic embedding   =      -0.07427928 Ry
     cavitation energy         =       0.02198132 Ry
     PV energy                 =      -0.08105362 Ry
     correction to one-el term =     174.39025332 Ry

     iteration # 12     ecut=    50.00 Ry     beta= 0.70
     Davidson diagonalization with overlap
     ethr =  1.20E-05,  avg # of iterations =  2.0

     negative rho (up, down):  1.710E-04 0.000E+00

     add environment contribution to local potential
     Polarization accuracy = 5.1E-12, # of iterations =  45

     total cpu time spent up to now is     4861.5 secs

     total energy              =   -3435.18983497 Ry
     estimated scf accuracy    <       0.05175764 Ry
     electrostatic embedding   =      -0.08309363 Ry
     cavitation energy         =       0.02185317 Ry
     PV energy                 =      -0.08110266 Ry
     correction to one-el term =     175.83961076 Ry

     iteration # 13     ecut=    50.00 Ry     beta= 0.70
     Davidson diagonalization with overlap
     ethr =  1.20E-05,  avg # of iterations =  2.0

     negative rho (up, down):  1.235E-03 0.000E+00

     add environment contribution to local potential
     Polarization accuracy = 3.5E-12, # of iterations =  46

     total cpu time spent up to now is     5132.8 secs

     total energy              =   -3435.19233060 Ry
     estimated scf accuracy    <       0.00907295 Ry
     electrostatic embedding   =      -0.09131215 Ry
     cavitation energy         =       0.02172867 Ry
     PV energy                 =      -0.08109979 Ry
     correction to one-el term =     176.65234975 Ry

     iteration # 14     ecut=    50.00 Ry     beta= 0.70
     Davidson diagonalization with overlap
     ethr =  2.48E-06,  avg # of iterations =  6.0

     negative rho (up, down):  1.706E-03 0.000E+00

     add environment contribution to local potential
     Polarization accuracy = 4.7E-12, # of iterations =  47

     total cpu time spent up to now is     5404.9 secs

     total energy              =   -3435.19494641 Ry
     estimated scf accuracy    <       0.00282348 Ry
     electrostatic embedding   =      -0.10019324 Ry
     cavitation energy         =       0.02162048 Ry
     PV energy                 =      -0.08112439 Ry
     correction to one-el term =     177.31060359 Ry

     iteration # 15     ecut=    50.00 Ry     beta= 0.70
     Davidson diagonalization with overlap
     ethr =  7.71E-07,  avg # of iterations =  7.0

     negative rho (up, down):  2.204E-04 0.000E+00

     add environment contribution to local potential
     Polarization accuracy = 6.4E-12, # of iterations =  45

     total cpu time spent up to now is     5722.1 secs

     total energy              =   -3435.19492319 Ry
     estimated scf accuracy    <       0.01177576 Ry
     electrostatic embedding   =      -0.10701947 Ry
     cavitation energy         =       0.02149798 Ry
     PV energy                 =      -0.08123821 Ry
     correction to one-el term =     178.14730518 Ry

     iteration # 16     ecut=    50.00 Ry     beta= 0.70
     Davidson diagonalization with overlap
     ethr =  7.71E-07,  avg # of iterations =  4.0

     negative rho (up, down):  8.285E-06 0.000E+00

     add environment contribution to local potential
     Polarization accuracy = 4.3E-12, # of iterations =  44

     total cpu time spent up to now is     6022.7 secs

     total energy              =   -3435.19533249 Ry
     estimated scf accuracy    <       0.00233167 Ry
     electrostatic embedding   =      -0.10563388 Ry
     cavitation energy         =       0.02154091 Ry
     PV energy                 =      -0.08125884 Ry
     correction to one-el term =     178.11293866 Ry

     iteration # 17     ecut=    50.00 Ry     beta= 0.70
     Davidson diagonalization with overlap
     ethr =  6.37E-07,  avg # of iterations =  6.0

     add environment contribution to local potential
     Polarization accuracy = 2.0E-12, # of iterations =  45

     total cpu time spent up to now is     6296.1 secs

     total energy              =   -3435.19535792 Ry
     estimated scf accuracy    <       0.00156742 Ry
     electrostatic embedding   =      -0.10691625 Ry
     cavitation energy         =       0.02149687 Ry
     PV energy                 =      -0.08134418 Ry
     correction to one-el term =     178.60623255 Ry

     iteration # 18     ecut=    50.00 Ry     beta= 0.70
     Davidson diagonalization with overlap
     ethr =  4.28E-07,  avg # of iterations =  8.0

     negative rho (up, down):  3.314E-04 0.000E+00

     add environment contribution to local potential
     Polarization accuracy = 8.0E-12, # of iterations =  43

     total cpu time spent up to now is     6611.2 secs

     total energy              =   -3435.19556077 Ry
     estimated scf accuracy    <       0.00010276 Ry
     electrostatic embedding   =      -0.10514629 Ry
     cavitation energy         =       0.02146696 Ry
     PV energy                 =      -0.08144999 Ry
     correction to one-el term =     179.20217067 Ry

     iteration # 19     ecut=    50.00 Ry     beta= 0.70
     Davidson diagonalization with overlap
     ethr =  2.81E-08,  avg # of iterations =  7.0

     negative rho (up, down):  2.101E-04 0.000E+00

     add environment contribution to local potential
     Polarization accuracy = 8.8E-12, # of iterations =  44

     total cpu time spent up to now is     6918.5 secs

     total energy              =   -3435.19560483 Ry
     estimated scf accuracy    <       0.00002488 Ry
     electrostatic embedding   =      -0.10356712 Ry
     cavitation energy         =       0.02144795 Ry
     PV energy                 =      -0.08148799 Ry
     correction to one-el term =     179.54722230 Ry

     iteration # 20     ecut=    50.00 Ry     beta= 0.70
     Davidson diagonalization with overlap
     ethr =  6.80E-09,  avg # of iterations =  3.0

     negative rho (up, down):  1.506E-04 0.000E+00

     add environment contribution to local potential
     Polarization accuracy = 9.4E-12, # of iterations =  43

     total cpu time spent up to now is     7198.7 secs

     total energy              =   -3435.19560918 Ry
     estimated scf accuracy    <       0.00002558 Ry
     electrostatic embedding   =      -0.10373667 Ry
     cavitation energy         =       0.02144277 Ry
     PV energy                 =      -0.08147613 Ry
     correction to one-el term =     179.59456344 Ry

     iteration # 21     ecut=    50.00 Ry     beta= 0.70
     Davidson diagonalization with overlap
     ethr =  6.80E-09,  avg # of iterations =  3.0

     negative rho (up, down):  1.115E-04 0.000E+00

     add environment contribution to local potential
     Polarization accuracy = 1.7E-12, # of iterations =  44

     total cpu time spent up to now is     7493.5 secs

     total energy              =   -3435.19562193 Ry
     estimated scf accuracy    <       0.00001484 Ry
     electrostatic embedding   =      -0.10269140 Ry
     cavitation energy         =       0.02143848 Ry
     PV energy                 =      -0.08147425 Ry
     correction to one-el term =     179.72241914 Ry

     iteration # 22     ecut=    50.00 Ry     beta= 0.70
     Davidson diagonalization with overlap
     ethr =  4.06E-09,  avg # of iterations =  3.0

     negative rho (up, down):  4.830E-04 0.000E+00

     add environment contribution to local potential
     Polarization accuracy = 1.7E-12, # of iterations =  44

     total cpu time spent up to now is     7833.9 secs

     total energy              =   -3435.19562682 Ry
     estimated scf accuracy    <       0.00000975 Ry
     electrostatic embedding   =      -0.10227181 Ry
     cavitation energy         =       0.02143742 Ry
     PV energy                 =      -0.08146782 Ry
     correction to one-el term =     179.77145112 Ry

     iteration # 23     ecut=    50.00 Ry     beta= 0.70
     Davidson diagonalization with overlap
     ethr =  2.66E-09,  avg # of iterations =  2.0

     negative rho (up, down):  1.182E-04 0.000E+00

     add environment contribution to local potential
     Polarization accuracy = 2.0E-12, # of iterations =  44

     total cpu time spent up to now is     8112.9 secs

     total energy              =   -3435.19562571 Ry
     estimated scf accuracy    <       0.00000602 Ry
     electrostatic embedding   =      -0.10242739 Ry
     cavitation energy         =       0.02143521 Ry
     PV energy                 =      -0.08146965 Ry
     correction to one-el term =     179.79194792 Ry

     iteration # 24     ecut=    50.00 Ry     beta= 0.70
     Davidson diagonalization with overlap
     ethr =  1.64E-09,  avg # of iterations =  4.0

     negative rho (up, down):  8.437E-05 0.000E+00

     add environment contribution to local potential
     Polarization accuracy = 1.9E-12, # of iterations =  44

     total cpu time spent up to now is     8389.0 secs

     total energy              =   -3435.19563044 Ry
     estimated scf accuracy    <       0.00000084 Ry
     electrostatic embedding   =      -0.10179346 Ry
     cavitation energy         =       0.02143613 Ry
     PV energy                 =      -0.08145941 Ry
     correction to one-el term =     179.82803036 Ry

     iteration # 25     ecut=    50.00 Ry     beta= 0.70
     Davidson diagonalization with overlap
     ethr =  2.30E-10,  avg # of iterations =  4.0

     negative rho (up, down):  1.482E-04 0.000E+00

     add environment contribution to local potential
     Polarization accuracy = 1.8E-12, # of iterations =  45

     total cpu time spent up to now is     8624.3 secs

     total energy              =   -3435.19563293 Ry
     estimated scf accuracy    <       0.00000045 Ry
     electrostatic embedding   =      -0.10163123 Ry
     cavitation energy         =       0.02143690 Ry
     PV energy                 =      -0.08145617 Ry
     correction to one-el term =     179.82993252 Ry

     iteration # 26     ecut=    50.00 Ry     beta= 0.70
     Davidson diagonalization with overlap
     ethr =  1.22E-10,  avg # of iterations =  3.0

     negative rho (up, down):  1.356E-04 0.000E+00

     add environment contribution to local potential
     Polarization accuracy = 1.8E-12, # of iterations =  45

     total cpu time spent up to now is     8904.8 secs

     total energy              =   -3435.19563407 Ry
     estimated scf accuracy    <       0.00000027 Ry
     electrostatic embedding   =      -0.10150807 Ry
     cavitation energy         =       0.02143618 Ry
     PV energy                 =      -0.08145783 Ry
     correction to one-el term =     179.84870816 Ry

     iteration # 27     ecut=    50.00 Ry     beta= 0.70
     Davidson diagonalization with overlap
     ethr =  7.30E-11,  avg # of iterations =  4.0

     negative rho (up, down):  1.605E-04 0.000E+00

     add environment contribution to local potential
     Polarization accuracy = 1.9E-12, # of iterations =  44

     total cpu time spent up to now is     9236.0 secs

     total energy              =   -3435.19563667 Ry
     estimated scf accuracy    <       0.00000020 Ry
     electrostatic embedding   =      -0.10137258 Ry
     cavitation energy         =       0.02143684 Ry
     PV energy                 =      -0.08145729 Ry
     correction to one-el term =     179.85234127 Ry

     iteration # 28     ecut=    50.00 Ry     beta= 0.70
     Davidson diagonalization with overlap
     ethr =  5.35E-11,  avg # of iterations =  4.0

     negative rho (up, down):  1.640E-04 0.000E+00

     add environment contribution to local potential
     Polarization accuracy = 1.8E-12, # of iterations =  45

     total cpu time spent up to now is     9550.7 secs

     total energy              =   -3435.19563876 Ry
     estimated scf accuracy    <       0.00000017 Ry
     electrostatic embedding   =      -0.10125101 Ry
     cavitation energy         =       0.02143712 Ry
     PV energy                 =      -0.08145928 Ry
     correction to one-el term =     179.86040559 Ry

     iteration # 29     ecut=    50.00 Ry     beta= 0.70
     Davidson diagonalization with overlap
     ethr =  4.64E-11,  avg # of iterations =  2.0

     negative rho (up, down):  1.512E-04 0.000E+00

     add environment contribution to local potential
     Polarization accuracy = 1.9E-12, # of iterations =  44

     total cpu time spent up to now is     9803.9 secs

     total energy              =   -3435.19563921 Ry
     estimated scf accuracy    <       0.00000008 Ry
     electrostatic embedding   =      -0.10122332 Ry
     cavitation energy         =       0.02143711 Ry
     PV energy                 =      -0.08145968 Ry
     correction to one-el term =     179.86328040 Ry

     iteration # 30     ecut=    50.00 Ry     beta= 0.70
     Davidson diagonalization with overlap
     ethr =  2.08E-11,  avg # of iterations =  4.0

     negative rho (up, down):  1.482E-04 0.000E+00

     add environment contribution to local potential
     Polarization accuracy = 5.6E-12, # of iterations =  44

     total cpu time spent up to now is    10102.9 secs

     total energy              =   -3435.19564069 Ry
     estimated scf accuracy    <       0.00000005 Ry
     electrostatic embedding   =      -0.10114583 Ry
     cavitation energy         =       0.02143729 Ry
     PV energy                 =      -0.08146005 Ry
     correction to one-el term =     179.86885899 Ry

     iteration # 31     ecut=    50.00 Ry     beta= 0.70
     Davidson diagonalization with overlap
     ethr =  1.50E-11,  avg # of iterations =  4.0

     negative rho (up, down):  1.416E-04 0.000E+00

     add environment contribution to local potential
     Polarization accuracy = 1.9E-12, # of iterations =  44

     total cpu time spent up to now is    10376.2 secs

     total energy              =   -3435.19564172 Ry
     estimated scf accuracy    <       0.00000006 Ry
     electrostatic embedding   =      -0.10109813 Ry
     cavitation energy         =       0.02143734 Ry
     PV energy                 =      -0.08145995 Ry
     correction to one-el term =     179.87255634 Ry

     iteration # 32     ecut=    50.00 Ry     beta= 0.70
     Davidson diagonalization with overlap
     ethr =  1.50E-11,  avg # of iterations =  1.0

     negative rho (up, down):  1.440E-04 0.000E+00

     add environment contribution to local potential
     Polarization accuracy = 1.8E-12, # of iterations =  45

     total cpu time spent up to now is    10626.3 secs

     total energy              =   -3435.19564211 Ry
     estimated scf accuracy    <       0.00000005 Ry
     electrostatic embedding   =      -0.10109659 Ry
     cavitation energy         =       0.02143731 Ry
     PV energy                 =      -0.08145977 Ry
     correction to one-el term =     179.87305640 Ry

     iteration # 33     ecut=    50.00 Ry     beta= 0.70
     Davidson diagonalization with overlap
     ethr =  1.31E-11,  avg # of iterations =  2.0

     negative rho (up, down):  1.486E-04 0.000E+00

     add environment contribution to local potential
     Polarization accuracy = 2.7E-12, # of iterations =  44

     total cpu time spent up to now is    10862.2 secs

     total energy              =   -3435.19564309 Ry
     estimated scf accuracy    <       0.00000005 Ry
     electrostatic embedding   =      -0.10109211 Ry
     cavitation energy         =       0.02143724 Ry
     PV energy                 =      -0.08145980 Ry
     correction to one-el term =     179.87373793 Ry

     iteration # 34     ecut=    50.00 Ry     beta= 0.70
     Davidson diagonalization with overlap
     ethr =  1.31E-11,  avg # of iterations =  3.0

     negative rho (up, down):  1.738E-04 0.000E+00

     add environment contribution to local potential
     Polarization accuracy = 1.7E-12, # of iterations =  45

     total cpu time spent up to now is    11163.8 secs

     total energy              =   -3435.19564489 Ry
     estimated scf accuracy    <       0.00000004 Ry
     electrostatic embedding   =      -0.10107104 Ry
     cavitation energy         =       0.02143714 Ry
     PV energy                 =      -0.08145950 Ry
     correction to one-el term =     179.87622915 Ry

     iteration # 35     ecut=    50.00 Ry     beta= 0.70
     Davidson diagonalization with overlap
     ethr =  1.07E-11,  avg # of iterations = 14.0

     negative rho (up, down):  1.740E-04 0.000E+00

     add environment contribution to local potential
     Polarization accuracy = 1.9E-12, # of iterations =  47

     total cpu time spent up to now is    11399.1 secs

     total energy              =   -3435.19564975 Ry
     estimated scf accuracy    <       0.00000002 Ry
     electrostatic embedding   =      -0.10109838 Ry
     cavitation energy         =       0.02143690 Ry
     PV energy                 =      -0.08145955 Ry
     correction to one-el term =     179.87560432 Ry

     iteration # 36     ecut=    50.00 Ry     beta= 0.70
     Davidson diagonalization with overlap
     ethr =  6.17E-12,  avg # of iterations =  3.0

     negative rho (up, down):  1.720E-04 0.000E+00

     add environment contribution to local potential
     Polarization accuracy = 4.2E-12, # of iterations =  44

     total cpu time spent up to now is    11614.2 secs

     total energy              =   -3435.19565463 Ry
     estimated scf accuracy    <       0.00000001 Ry
     electrostatic embedding   =      -0.10107607 Ry
     cavitation energy         =       0.02143704 Ry
     PV energy                 =      -0.08145991 Ry
     correction to one-el term =     179.87719394 Ry

     iteration # 37     ecut=    50.00 Ry     beta= 0.70
     Davidson diagonalization with overlap
     ethr =  3.77E-12,  avg # of iterations =  5.0

     negative rho (up, down):  1.603E-04 0.000E+00

     add environment contribution to local potential
     Polarization accuracy = 1.6E-12, # of iterations =  45

     total cpu time spent up to now is    11771.0 secs

     total energy              =   -3435.19565764 Ry
     estimated scf accuracy    <          4.8E-09 Ry
     electrostatic embedding   =      -0.10112305 Ry
     cavitation energy         =       0.02143714 Ry
     PV energy                 =      -0.08146007 Ry
     correction to one-el term =     179.87300023 Ry

     iteration # 38     ecut=    50.00 Ry     beta= 0.70
     Davidson diagonalization with overlap
     ethr =  1.31E-12,  avg # of iterations =  4.0

     negative rho (up, down):  1.524E-04 0.000E+00

     add environment contribution to local potential
     Polarization accuracy = 1.7E-12, # of iterations =  44

     total cpu time spent up to now is    12073.7 secs

     total energy              =   -3435.19565882 Ry
     estimated scf accuracy    <          2.4E-09 Ry
     electrostatic embedding   =      -0.10113982 Ry
     cavitation energy         =       0.02143717 Ry
     PV energy                 =      -0.08145984 Ry
     correction to one-el term =     179.87121199 Ry

     iteration # 39     ecut=    50.00 Ry     beta= 0.70
     Davidson diagonalization with overlap
     ethr =  6.48E-13,  avg # of iterations =  2.0

     negative rho (up, down):  1.544E-04 0.000E+00

     add environment contribution to local potential
     Polarization accuracy = 4.5E-12, # of iterations =  44

     total cpu time spent up to now is    12352.7 secs

     total energy              =   -3435.19565929 Ry
     estimated scf accuracy    <          1.1E-09 Ry
     electrostatic embedding   =      -0.10114012 Ry
     cavitation energy         =       0.02143724 Ry
     PV energy                 =      -0.08145983 Ry
     correction to one-el term =     179.87048578 Ry

     iteration # 40     ecut=    50.00 Ry     beta= 0.70
     Davidson diagonalization with overlap
     ethr =  3.10E-13,  avg # of iterations =  3.0

     negative rho (up, down):  1.504E-04 0.000E+00

     the potential shift due to the Gaussian-smeared nuclei is    -1.3136 ev

     total cpu time spent up to now is    12659.4 secs

     End of self-consistent calculation

          k = 0.2500 0.2573 0.0000 ( 35510 PWs)   bands (ev):

   -77.5930 -77.5806 -77.4358 -77.4236 -76.7454 -76.7405 -76.7043 -76.6993
   -76.6925 -76.6875 -76.5907 -76.5777 -48.1150 -48.1026 -47.8526 -47.8403
   -47.4862 -47.4737 -47.3422 -47.3299 -47.2383 -47.2259 -47.1232 -47.1109
   -47.0522 -47.0459 -47.0223 -47.0190 -47.0105 -47.0071 -46.8846 -46.8106
   -46.6787 -46.6745 -46.6664 -46.5891 -46.5813 -46.5773 -46.5743 -46.5587
   -46.5505 -46.5489 -46.5380 -46.5286 -46.5172 -46.4607 -46.4429 -46.4315
   -25.4809 -25.4639 -23.4507 -23.4013 -23.0554 -22.9521 -22.8465 -22.7261
   -22.6532 -22.6031 -22.4482 -22.4045 -22.3576 -22.2037 -22.1662 -22.1503
   -22.1434 -22.0235 -22.0013 -21.8905 -21.8810 -21.8486 -21.7081 -21.6895
   -21.3469 -21.2205 -21.2073 -21.1658 -13.1872 -13.1694 -11.7792 -11.4976
   -11.3266 -11.3055 -11.2346 -11.2119 -11.0027 -10.7616 -10.7199 -10.6433
   -10.5438 -10.4474 -10.4115 -10.3694 -10.3026 -10.2352 -10.1431 -10.1074
   -10.0784 -10.0633 -10.0069  -9.9517  -9.9089  -9.8540  -9.7241  -9.6818
    -9.5160  -9.4476  -9.2520  -9.1828  -9.0903  -9.0306  -9.0234  -8.7944
    -8.7733  -8.7661  -8.6335  -8.6215  -8.5422  -8.4286  -8.4227  -8.3022
    -8.2626  -8.2087  -8.0604  -8.0329  -7.9823  -7.9198  -7.8635  -7.8598
    -7.7920  -7.7402  -7.6368  -7.6198  -7.5776  -7.5306  -7.4933  -7.4167
    -7.4050  -7.3294  -7.2368  -7.1658  -7.0716  -7.0254  -6.9334  -6.7654
    -6.7529  -6.6601  -6.5462  -6.4635  -6.3906  -6.2475  -6.2372  -6.1149
    -6.0922  -6.0482  -5.9324  -5.9238  -5.8611  -5.7738  -5.7003  -5.5384
    -4.5175  -4.4184  -4.4000  -4.3066  -4.2499  -4.2388  -4.1582  -4.0932
    -4.0741  -3.9877  -3.9693  -3.9308  -3.8772  -3.8113  -3.8090  -3.7720
    -3.7291  -3.7126  -3.6743  -3.6500  -3.5652  -3.5307  -3.3213  -3.1960
    -3.1260  -3.0846  -2.9809  -2.8678  -2.6966  -2.6317  -2.5850  -2.5016
    -2.4781  -2.4560  -2.2472  -2.1168  -1.5852  -1.4067  -1.3380  -1.1329
    -0.9174  -0.8808  -0.7209  -0.5004  -0.2163  -0.1115  -0.0246   0.0691
     0.3609   0.3731   0.4557   0.5054   0.7674   0.8092   0.8714   1.1262
     1.2241   1.2880   1.2971   1.3781

     the Fermi energy is    -3.3419 ev

!    total energy              =   -3435.19565931 Ry
     estimated scf accuracy    <          7.1E-10 Ry
     smearing contrib. (-TS)   =       0.06827645 Ry
     internal energy E=F+TS    =   -3435.26393576 Ry

     The total energy is F=E-TS. E is the sum of the following terms:
     one-electron contribution =  -25209.54853683 Ry
     hartree contribution      =   12594.74187072 Ry
     xc contribution           =    -448.11674434 Ry
     ewald contribution        =    9714.45725168 Ry
     one-center paw contrib.   =    -266.50682357 Ry
     electrostatic embedding   =      -0.10114358 Ry
     cavitation energy         =       0.02143722 Ry
     PV energy                 =      -0.08145982 Ry
     correction to one-el term =     179.87021277 Ry

     WARNING: you are using the parabolic pbc correction;
              the potential shift above must be added to 
              band and Fermi energies.

     convergence has been achieved in  40 iterations

     negative rho (up, down):  1.504E-04 0.000E+00

     Forces acting on atoms (cartesian axes, Ry/au):

     atom    1 type  1   force =     0.00000000   -0.01843240   -0.02047593
     atom    2 type  1   force =     0.00000000   -0.00233083   -0.01406667
     atom    3 type  1   force =     0.00000000    0.06094670    0.03690461
     atom    4 type  1   force =     0.00000000   -0.04711068    0.04001828
     atom    5 type  2   force =     0.00234275    0.00318745   -0.00354365
     atom    6 type  2   force =    -0.00234275    0.00318745   -0.00354365
     atom    7 type  1   force =     0.00433561    0.01931928   -0.00225711
     atom    8 type  1   force =    -0.00433561    0.01931928   -0.00225711
     atom    9 type  2   force =     0.00000000    0.01156114    0.01357426
     atom   10 type  2   force =     0.00000000   -0.02035193    0.00486301
     atom   11 type  1   force =    -0.00867528   -0.02165770    0.00137606
     atom   12 type  1   force =     0.00867528   -0.02165770    0.00137606
     atom   13 type  1   force =     0.00000000    0.00078929    0.00705655
     atom   14 type  1   force =     0.00000000    0.00110807    0.00258798
     atom   15 type  1   force =     0.00000000    0.00025233    0.00038403
     atom   16 type  1   force =     0.00000000    0.00040558    0.00064589
     atom   17 type  2   force =     0.00000000   -0.00224994    0.00000000
     atom   18 type  2   force =     0.00000000   -0.00050350    0.00000000
     atom   19 type  1   force =    -0.00106288   -0.02900619    0.00000000
     atom   20 type  1   force =     0.00106288   -0.02900619    0.00000000
     atom   21 type  2   force =    -0.00119361   -0.00163225    0.00000000
     atom   22 type  2   force =     0.00119361   -0.00163225    0.00000000
     atom   23 type  1   force =    -0.00172637    0.02988730    0.00000000
     atom   24 type  1   force =     0.00172637    0.02988730    0.00000000
     atom   25 type  1   force =     0.00000000    0.00025233   -0.00038403
     atom   26 type  1   force =     0.00000000    0.00040558   -0.00064589
     atom   27 type  1   force =     0.00000000    0.00078929   -0.00705655
     atom   28 type  1   force =     0.00000000    0.00110807   -0.00258798
     atom   29 type  2   force =     0.00234275    0.00318745    0.00354365
     atom   30 type  2   force =    -0.00234275    0.00318745    0.00354365
     atom   31 type  1   force =     0.00433561    0.01931928    0.00225711
     atom   32 type  1   force =    -0.00433561    0.01931928    0.00225711
     atom   33 type  2   force =     0.00000000    0.01156114   -0.01357426
     atom   34 type  2   force =     0.00000000   -0.02035193   -0.00486301
     atom   35 type  1   force =    -0.00867528   -0.02165770   -0.00137606
     atom   36 type  1   force =     0.00867528   -0.02165770   -0.00137606
     atom   37 type  1   force =     0.00000000    0.06094670   -0.03690461
     atom   38 type  1   force =     0.00000000   -0.04711068   -0.04001828
     atom   39 type  1   force =     0.00000000   -0.01843240    0.02047593
     atom   40 type  1   force =     0.00000000   -0.00233083    0.01406667
     atom   41 type  3   force =     0.00000000    0.02374351   -0.02232480
     atom   42 type  3   force =     0.00000000    0.02374351    0.02232480
     atom   43 type  3   force =     0.00000000    0.04450513   -0.03866772
     atom   44 type  3   force =     0.00000000    0.04450513    0.03866772
     atom   45 type  3   force =     0.00000000   -0.05465612   -0.01513923
     atom   46 type  3   force =     0.00000000   -0.05465612    0.01513923
     The non-local contrib.  to forces
     atom    1 type  1   force =     0.00000000    0.05289661    1.07382421
     atom    2 type  1   force =     0.00000000    0.06116102    1.20737390
     atom    3 type  1   force =     0.00000000   -0.03996922   -1.11478341
     atom    4 type  1   force =     0.00000000    1.44721114   -0.22445011
     atom    5 type  2   force =    -0.03664773    0.01007502    0.04221009
     atom    6 type  2   force =     0.03664773    0.01007502    0.04221009
     atom    7 type  1   force =    -0.16174399    0.04218652    0.01090198
     atom    8 type  1   force =     0.16174399    0.04218652    0.01090198
     atom    9 type  2   force =     0.00000000    0.02919595   -0.00295330
     atom   10 type  2   force =     0.00000000   -0.02984765   -0.04047531
     atom   11 type  1   force =     0.17898830   -0.02748495   -0.15202797
     atom   12 type  1   force =    -0.17898830   -0.02748495   -0.15202797
     atom   13 type  1   force =     0.00000000    0.04776897   -0.04738316
     atom   14 type  1   force =     0.00000000   -0.08622830   -0.14981897
     atom   15 type  1   force =     0.00000000    0.06765077    0.03691275
     atom   16 type  1   force =     0.00000000   -0.00310806    0.22671361
     atom   17 type  2   force =     0.00000000   -0.00561098    0.00000000
     atom   18 type  2   force =     0.00000000    0.00445564    0.00000000
     atom   19 type  1   force =    -0.00104421   -0.00975435    0.00000000
     atom   20 type  1   force =     0.00104421   -0.00975435    0.00000000
     atom   21 type  2   force =    -0.01283354   -0.00145118    0.00000000
     atom   22 type  2   force =     0.01283354   -0.00145118    0.00000000
     atom   23 type  1   force =     0.03984986   -0.00352800    0.00000000
     atom   24 type  1   force =    -0.03984986   -0.00352800    0.00000000
     atom   25 type  1   force =     0.00000000    0.06765077   -0.03691275
     atom   26 type  1   force =     0.00000000   -0.00310806   -0.22671361
     atom   27 type  1   force =     0.00000000    0.04776897    0.04738316
     atom   28 type  1   force =     0.00000000   -0.08622830    0.14981897
     atom   29 type  2   force =    -0.03664773    0.01007502   -0.04221009
     atom   30 type  2   force =     0.03664773    0.01007502   -0.04221009
     atom   31 type  1   force =    -0.16174399    0.04218652   -0.01090198
     atom   32 type  1   force =     0.16174399    0.04218652   -0.01090198
     atom   33 type  2   force =     0.00000000    0.02919595    0.00295330
     atom   34 type  2   force =     0.00000000   -0.02984765    0.04047531
     atom   35 type  1   force =     0.17898830   -0.02748495    0.15202797
     atom   36 type  1   force =    -0.17898830   -0.02748495    0.15202797
     atom   37 type  1   force =     0.00000000   -0.03996922    1.11478341
     atom   38 type  1   force =     0.00000000    1.44721114    0.22445011
     atom   39 type  1   force =     0.00000000    0.05289661   -1.07382421
     atom   40 type  1   force =     0.00000000    0.06116102   -1.20737390
     atom   41 type  3   force =     0.00000000   -0.06650237    0.09928166
     atom   42 type  3   force =     0.00000000   -0.06650237   -0.09928166
     atom   43 type  3   force =     0.00000000   -0.08915588    0.08185893
     atom   44 type  3   force =     0.00000000   -0.08915588   -0.08185893
     atom   45 type  3   force =     0.00000000    0.07572223    0.02451665
     atom   46 type  3   force =     0.00000000    0.07572223   -0.02451665
     The ionic contribution  to forces
     atom    1 type  1   force =    -0.00000000   -0.21507060  -98.36201738
     atom    2 type  1   force =    -0.00000000   -0.96047164  -99.74418377
     atom    3 type  1   force =     0.00000000    2.32411570  -88.47047721
     atom    4 type  1   force =     0.00000000   -2.27640918  -90.97553157
     atom    5 type  2   force =    -1.84113449    1.84500175 -166.71141020
     atom    6 type  2   force =     1.84113449    1.84500175 -166.71141020
     atom    7 type  1   force =     0.70223059   -0.74058762  -64.54722947
     atom    8 type  1   force =    -0.70223059   -0.74058762  -64.54722947
     atom    9 type  2   force =     0.00000000   -2.42280733 -167.51198623
     atom   10 type  2   force =    -0.00000000   -2.14665380 -170.87800111
     atom   11 type  1   force =    -1.04787932    0.10524055  -59.78323618
     atom   12 type  1   force =     1.04787932    0.10524055  -59.78323618
     atom   13 type  1   force =    -0.00000000    0.04118008  -37.75041799
     atom   14 type  1   force =    -0.00000000    1.11577174  -36.87535815
     atom   15 type  1   force =     0.00000000   -0.05397847  -26.08831709
     atom   16 type  1   force =    -0.00000000   -0.69270016  -27.52029716
     atom   17 type  2   force =    -0.00000000   -0.28939270   -0.00045588
     atom   18 type  2   force =     0.00000000   -0.30185727   -0.00047149
     atom   19 type  1   force =    -0.17568131    0.97482794   -0.00007966
     atom   20 type  1   force =     0.17568131    0.97482794   -0.00007966
     atom   21 type  2   force =    -0.32399982   -0.05813574   -0.00025087
     atom   22 type  2   force =     0.32399982   -0.05813574   -0.00025087
     atom   23 type  1   force =    -0.24171357   -0.78460077   -0.00008149
     atom   24 type  1   force =     0.24171357   -0.78460077   -0.00008149
     atom   25 type  1   force =     0.00000000   -0.05397612   26.08812631
     atom   26 type  1   force =     0.00000000   -0.69270527   27.52013898
     atom   27 type  1   force =    -0.00000000    0.04117224   37.75070611
     atom   28 type  1   force =    -0.00000000    1.11578504   36.87566465
     atom   29 type  2   force =    -1.84108954    1.84497706  166.71171813
     atom   30 type  2   force =     1.84108954    1.84497706  166.71171813
     atom   31 type  1   force =     0.70223222   -0.74060858   64.54729710
     atom   32 type  1   force =    -0.70223222   -0.74060858   64.54729710
     atom   33 type  2   force =    -0.00000000   -2.42280306  167.51214291
     atom   34 type  2   force =    -0.00000000   -2.14664302  170.87816311
     atom   35 type  1   force =    -1.04787701    0.10526867   59.78331055
     atom   36 type  1   force =     1.04787701    0.10526867   59.78331055
     atom   37 type  1   force =     0.00000000    2.32404761   88.47042244
     atom   38 type  1   force =    -0.00000000   -2.27667771   90.97551679
     atom   39 type  1   force =    -0.00000000   -0.21508055   98.36209019
     atom   40 type  1   force =     0.00000000   -0.96046895   99.74424830
     atom   41 type  3   force =    -0.00000000    2.16702560  -17.64589034
     atom   42 type  3   force =     0.00000000    2.16725467   17.64611655
     atom   43 type  3   force =    -0.00000000    2.33587718  -17.46809741
     atom   44 type  3   force =     0.00000000    2.33613940   17.46819003
     atom   45 type  3   force =     0.00000000   -1.47166000  -15.93437315
     atom   46 type  3   force =     0.00000000   -1.47177998   15.93427371
     The local contribution  to forces
     atom    1 type  1   force =     0.00000000    0.11128331   97.19327222
     atom    2 type  1   force =     0.00000000    0.97128556   98.42323641
     atom    3 type  1   force =    -0.00000000   -2.32570663   89.76599856
     atom    4 type  1   force =     0.00000000    0.73206549   91.25223268
     atom    5 type  2   force =     1.92682157   -1.88986936  166.72276370
     atom    6 type  2   force =    -1.92682157   -1.88986936  166.72276370
     atom    7 type  1   force =    -0.52446282    0.74994503   64.53617069
     atom    8 type  1   force =     0.52446282    0.74994503   64.53617069
     atom    9 type  2   force =     0.00000000    2.44029757  167.48182504
     atom   10 type  2   force =    -0.00000000    2.19541528  170.82508699
     atom   11 type  1   force =     0.87481340   -0.11664943   59.91327076
     atom   12 type  1   force =    -0.87481340   -0.11664943   59.91327076
     atom   13 type  1   force =     0.00000000   -0.09214954   37.81619431
     atom   14 type  1   force =     0.00000000   -1.03321324   37.02720750
     atom   15 type  1   force =     0.00000000   -0.01030637   26.04972560
     atom   16 type  1   force =    -0.00000000    0.69838468   27.29108726
     atom   17 type  2   force =    -0.00000000    0.28957116   -0.00580209
     atom   18 type  2   force =     0.00000000    0.29369135   -0.00577617
     atom   19 type  1   force =     0.17702852   -0.99319579   -0.00242969
     atom   20 type  1   force =    -0.17702852   -0.99319579   -0.00242969
     atom   21 type  2   force =     0.33886415    0.06113390   -0.00600908
     atom   22 type  2   force =    -0.33886415    0.06113390   -0.00600908
     atom   23 type  1   force =     0.20194162    0.81625197   -0.00242489
     atom   24 type  1   force =    -0.20194162    0.81625197   -0.00242489
     atom   25 type  1   force =     0.00000000   -0.01031903  -26.05150531
     atom   26 type  1   force =     0.00000000    0.69841004  -27.29286039
     atom   27 type  1   force =     0.00000000   -0.09215473  -37.81797924
     atom   28 type  1   force =    -0.00000000   -1.03321459  -37.02895960
     atom   29 type  2   force =     1.92684382   -1.88987312 -166.72877223
     atom   30 type  2   force =    -1.92684382   -1.88987312 -166.72877223
     atom   31 type  1   force =    -0.52444420    0.74998966  -64.53860226
     atom   32 type  1   force =     0.52444420    0.74998966  -64.53860226
     atom   33 type  2   force =     0.00000000    2.44043583 -167.48760222
     atom   34 type  2   force =     0.00000000    2.19535004 -170.83081418
     atom   35 type  1   force =     0.87481333   -0.11668676  -59.91568792
     atom   36 type  1   force =    -0.87481333   -0.11668676  -59.91568792
     atom   37 type  1   force =     0.00000000   -2.32574422  -89.76972546
     atom   38 type  1   force =    -0.00000000    0.73218687  -91.25597157
     atom   39 type  1   force =    -0.00000000    0.11140535  -97.19481526
     atom   40 type  1   force =     0.00000000    0.97122623  -98.42464098
     atom   41 type  3   force =     0.00000000   -2.10952883   17.59295265
     atom   42 type  3   force =    -0.00000000   -2.10952883  -17.59295265
     atom   43 type  3   force =     0.00000000   -2.20443618   17.36476099
     atom   44 type  3   force =    -0.00000000   -2.20443618  -17.36476099
     atom   45 type  3   force =     0.00000000    1.31508134   15.90436817
     atom   46 type  3   force =    -0.00000000    1.31508134  -15.90436817
     The core correction contribution to forces
     atom    1 type  1   force =     0.00000000   -0.00050357   -0.00943656
     atom    2 type  1   force =    -0.00000000   -0.00042049   -0.01010138
     atom    3 type  1   force =     0.00000000   -0.00084061    0.00944562
     atom    4 type  1   force =     0.00000000   -0.01399557    0.00113976
     atom    5 type  2   force =     0.00000000    0.00000000    0.00000000
     atom    6 type  2   force =     0.00000000    0.00000000    0.00000000
     atom    7 type  1   force =     0.00151999   -0.00103502   -0.00005225
     atom    8 type  1   force =    -0.00151999   -0.00103502   -0.00005225
     atom    9 type  2   force =     0.00000000    0.00000000    0.00000000
     atom   10 type  2   force =     0.00000000    0.00000000    0.00000000
     atom   11 type  1   force =    -0.00174574    0.00092217    0.00152056
     atom   12 type  1   force =     0.00174574    0.00092217    0.00152056
     atom   13 type  1   force =     0.00000000   -0.00055810    0.00050853
     atom   14 type  1   force =     0.00000000    0.00085450    0.00190235
     atom   15 type  1   force =    -0.00000000   -0.00096832   -0.00050778
     atom   16 type  1   force =     0.00000000    0.00026459   -0.00266286
     atom   17 type  2   force =     0.00000000    0.00000000    0.00000000
     atom   18 type  2   force =     0.00000000    0.00000000    0.00000000
     atom   19 type  1   force =    -0.00001633    0.00063233   -0.00000193
     atom   20 type  1   force =     0.00001633    0.00063233   -0.00000193
     atom   21 type  2   force =     0.00000000    0.00000000    0.00000000
     atom   22 type  2   force =     0.00000000    0.00000000    0.00000000
     atom   23 type  1   force =    -0.00043351   -0.00054836   -0.00000198
     atom   24 type  1   force =     0.00043351   -0.00054836   -0.00000198
     atom   25 type  1   force =    -0.00000000   -0.00096886    0.00050536
     atom   26 type  1   force =     0.00000000    0.00026486    0.00266070
     atom   27 type  1   force =    -0.00000000   -0.00055814   -0.00051060
     atom   28 type  1   force =    -0.00000000    0.00085469   -0.00190444
     atom   29 type  2   force =     0.00000000    0.00000000    0.00000000
     atom   30 type  2   force =     0.00000000    0.00000000    0.00000000
     atom   31 type  1   force =     0.00151998   -0.00103482    0.00005050
     atom   32 type  1   force =    -0.00151998   -0.00103482    0.00005050
     atom   33 type  2   force =     0.00000000    0.00000000    0.00000000
     atom   34 type  2   force =     0.00000000    0.00000000    0.00000000
     atom   35 type  1   force =    -0.00174570    0.00092206   -0.00152212
     atom   36 type  1   force =     0.00174570    0.00092206   -0.00152212
     atom   37 type  1   force =     0.00000000   -0.00084134   -0.00945000
     atom   38 type  1   force =    -0.00000000   -0.01399770   -0.00114419
     atom   39 type  1   force =     0.00000000   -0.00050333    0.00943385
     atom   40 type  1   force =     0.00000000   -0.00042086    0.01009936
     atom   41 type  3   force =     0.00000000    0.00000000    0.00000000
     atom   42 type  3   force =     0.00000000    0.00000000    0.00000000
     atom   43 type  3   force =     0.00000000    0.00000000    0.00000000
     atom   44 type  3   force =     0.00000000    0.00000000    0.00000000
     atom   45 type  3   force =     0.00000000    0.00000000    0.00000000
     atom   46 type  3   force =     0.00000000    0.00000000    0.00000000
     The Hubbard contrib.    to forces
     atom    1 type  1   force =     0.00000000    0.00000000    0.00000000
     atom    2 type  1   force =     0.00000000    0.00000000    0.00000000
     atom    3 type  1   force =     0.00000000    0.00000000    0.00000000
     atom    4 type  1   force =     0.00000000    0.00000000    0.00000000
     atom    5 type  2   force =     0.00000000    0.00000000    0.00000000
     atom    6 type  2   force =     0.00000000    0.00000000    0.00000000
     atom    7 type  1   force =     0.00000000    0.00000000    0.00000000
     atom    8 type  1   force =     0.00000000    0.00000000    0.00000000
     atom    9 type  2   force =     0.00000000    0.00000000    0.00000000
     atom   10 type  2   force =     0.00000000    0.00000000    0.00000000
     atom   11 type  1   force =     0.00000000    0.00000000    0.00000000
     atom   12 type  1   force =     0.00000000    0.00000000    0.00000000
     atom   13 type  1   force =     0.00000000    0.00000000    0.00000000
     atom   14 type  1   force =     0.00000000    0.00000000    0.00000000
     atom   15 type  1   force =     0.00000000    0.00000000    0.00000000
     atom   16 type  1   force =     0.00000000    0.00000000    0.00000000
     atom   17 type  2   force =     0.00000000    0.00000000    0.00000000
     atom   18 type  2   force =     0.00000000    0.00000000    0.00000000
     atom   19 type  1   force =     0.00000000    0.00000000    0.00000000
     atom   20 type  1   force =     0.00000000    0.00000000    0.00000000
     atom   21 type  2   force =     0.00000000    0.00000000    0.00000000
     atom   22 type  2   force =     0.00000000    0.00000000    0.00000000
     atom   23 type  1   force =     0.00000000    0.00000000    0.00000000
     atom   24 type  1   force =     0.00000000    0.00000000    0.00000000
     atom   25 type  1   force =     0.00000000    0.00000000    0.00000000
     atom   26 type  1   force =     0.00000000    0.00000000    0.00000000
     atom   27 type  1   force =     0.00000000    0.00000000    0.00000000
     atom   28 type  1   force =     0.00000000    0.00000000    0.00000000
     atom   29 type  2   force =     0.00000000    0.00000000    0.00000000
     atom   30 type  2   force =     0.00000000    0.00000000    0.00000000
     atom   31 type  1   force =     0.00000000    0.00000000    0.00000000
     atom   32 type  1   force =     0.00000000    0.00000000    0.00000000
     atom   33 type  2   force =     0.00000000    0.00000000    0.00000000
     atom   34 type  2   force =     0.00000000    0.00000000    0.00000000
     atom   35 type  1   force =     0.00000000    0.00000000    0.00000000
     atom   36 type  1   force =     0.00000000    0.00000000    0.00000000
     atom   37 type  1   force =     0.00000000    0.00000000    0.00000000
     atom   38 type  1   force =     0.00000000    0.00000000    0.00000000
     atom   39 type  1   force =     0.00000000    0.00000000    0.00000000
     atom   40 type  1   force =     0.00000000    0.00000000    0.00000000
     atom   41 type  3   force =     0.00000000    0.00000000    0.00000000
     atom   42 type  3   force =     0.00000000    0.00000000    0.00000000
     atom   43 type  3   force =     0.00000000    0.00000000    0.00000000
     atom   44 type  3   force =     0.00000000    0.00000000    0.00000000
     atom   45 type  3   force =     0.00000000    0.00000000    0.00000000
     atom   46 type  3   force =     0.00000000    0.00000000    0.00000000
     The SCF correction term to forces
     atom    1 type  1   force =     0.00000000    0.00000845    0.00000627
     atom    2 type  1   force =    -0.00000000    0.00000044    0.00000302
     atom    3 type  1   force =     0.00000000   -0.00001115    0.00000654
     atom    4 type  1   force =    -0.00000000   -0.00000112    0.00000326
     atom    5 type  2   force =    -0.00002231   -0.00000473    0.00000114
     atom    6 type  2   force =     0.00002231   -0.00000473    0.00000114
     atom    7 type  1   force =    -0.00001037    0.00000030    0.00000194
     atom    8 type  1   force =     0.00001037    0.00000030    0.00000194
     atom    9 type  2   force =    -0.00000000    0.00000626   -0.00000283
     atom   10 type  2   force =     0.00000000    0.00000199    0.00001786
     atom   11 type  1   force =    -0.00001121    0.00000107   -0.00000008
     atom   12 type  1   force =     0.00001121    0.00000107   -0.00000008
     atom   13 type  1   force =    -0.00000000   -0.00000074    0.00001488
     atom   14 type  1   force =     0.00000000   -0.00000025   -0.00000068
     atom   15 type  1   force =    -0.00000000    0.00000069   -0.00000289
     atom   16 type  1   force =     0.00000000   -0.00000001   -0.00000080
     atom   17 type  2   force =    -0.00000000   -0.00000076    0.00001038
     atom   18 type  2   force =     0.00000000   -0.00000029    0.00001044
     atom   19 type  1   force =    -0.00001980   -0.00001227    0.00000382
     atom   20 type  1   force =     0.00001980   -0.00001227    0.00000382
     atom   21 type  2   force =    -0.00001789    0.00000055    0.00001014
     atom   22 type  2   force =     0.00001789    0.00000055    0.00001014
     atom   23 type  1   force =    -0.00001950    0.00001171    0.00000380
     atom   24 type  1   force =     0.00001950    0.00001171    0.00000380
     atom   25 type  1   force =    -0.00000000    0.00000066    0.00000914
     atom   26 type  1   force =     0.00000000   -0.00000002    0.00000697
     atom   27 type  1   force =    -0.00000000   -0.00000069   -0.00001040
     atom   28 type  1   force =     0.00000000   -0.00000026    0.00000524
     atom   29 type  2   force =    -0.00002222   -0.00000458    0.00000099
     atom   30 type  2   force =     0.00002222   -0.00000458    0.00000099
     atom   31 type  1   force =    -0.00001039    0.00000015   -0.00000138
     atom   32 type  1   force =     0.00001039    0.00000015   -0.00000138
     atom   33 type  2   force =    -0.00000000    0.00000598    0.00000420
     atom   34 type  2   force =     0.00000000    0.00000196   -0.00001703
     atom   35 type  1   force =    -0.00001114    0.00000119    0.00000103
     atom   36 type  1   force =     0.00001114    0.00000119    0.00000103
     atom   37 type  1   force =     0.00000000   -0.00001103   -0.00000872
     atom   38 type  1   force =    -0.00000000   -0.00000109   -0.00000534
     atom   39 type  1   force =     0.00000000    0.00000837   -0.00000867
     atom   40 type  1   force =    -0.00000000    0.00000043   -0.00000550
     atom   41 type  3   force =     0.00000000   -0.00000116    0.00000140
     atom   42 type  3   force =    -0.00000000   -0.00000115   -0.00000178
     atom   43 type  3   force =    -0.00000000   -0.00000077    0.00000070
     atom   44 type  3   force =    -0.00000000   -0.00000079   -0.00000108
     atom   45 type  3   force =    -0.00000000   -0.00000034    0.00000131
     atom   46 type  3   force =     0.00000000   -0.00000032   -0.00000167

     Total force =     0.210322     Total SCF correction =     0.000091

     BFGS Geometry Optimization
     Energy error            =      0.0E+00 Ry
     Gradient error          =      6.1E-02 Ry/Bohr

     number of scf cycles    =   1
     number of bfgs steps    =   0

     energy             new  =   -3435.1956593138 Ry

     new trust radius        =       0.0712492183 bohr
     new conv_thr            =       0.0000000010 Ry


ATOMIC_POSITIONS (crystal)
O             0.0000000000        0.5782983523        0.2765427297
O             0.5000000000        0.4886836861        0.2732319866
O             0.0000000000       -0.0317064611        0.2948268453
O             0.5000000000        0.0050362462        0.3013946694
Ru            0.2533882860        0.0071336772        0.3599506901
Ru            0.7466117140        0.0071336772        0.3599506901
O             0.2387967743        0.3118085014        0.3548400282
O             0.7612032257        0.3118085014        0.3548400282
Ru            0.0000000000        0.5038248458        0.3548576818
Ru            0.5000000000        0.5122887616        0.3514405236
O             0.2617048696        0.7020573465        0.3608066538
O             0.7382951304        0.7020573465        0.3608066538
O             0.0000000000        0.0018177091        0.4118603516
O             0.5000000000        0.0174970349        0.4127388278
O             0.0000000000        0.5043408426        0.4449318832
O             0.5000000000        0.4977420673        0.4431761914
Ru            0.0000000000        0.0031804852        0.5000010000
Ru            0.5000000000        0.0044944497        0.5000010000
O             0.2472987965        0.1961159380        0.5000010000
O             0.7527012035        0.1961159380        0.5000010000
Ru            0.2533621141        0.5034830716        0.5000010000
Ru            0.7466378859        0.5034830716        0.5000010000
O             0.2520128692        0.8103589821        0.5000010000
O             0.7479871308        0.8103589821        0.5000010000
O             0.0000000000        0.5043408426        0.5550691168
O             0.5000000000        0.4977420673        0.5568248086
O             0.0000000000        0.0018177091        0.5881406484
O             0.5000000000        0.0174970349        0.5872621722
Ru            0.2533882860        0.0071336772        0.6400503099
Ru            0.7466117140        0.0071336772        0.6400503099
O             0.2387967743        0.3118085014        0.6451609718
O             0.7612032257        0.3118085014        0.6451609718
Ru            0.0000000000        0.5038248458        0.6451433182
Ru            0.5000000000        0.5122887616        0.6485604764
O             0.2617048696        0.7020573465        0.6391943462
O             0.7382951304        0.7020573465        0.6391943462
O             0.0000000000       -0.0317064611        0.7051751547
O             0.5000000000        0.0050362462        0.6986073306
O             0.0000000000        0.5782983523        0.7234582703
O             0.5000000000        0.4886836861        0.7267690134
H             0.0000000000        0.0511026470        0.2571118279
H             0.0000000000        0.0511026470        0.7428881721
H             0.5000000000        0.1266262478        0.2710533496
H             0.5000000000        0.1266262478        0.7289466504
H             0.0000000000        0.8028705110        0.2803129636
H             0.0000000000        0.8028705110        0.7196870364



     Writing config-only to output data dir /storage/home/mgm6007/ixd4/Maria/Strain0_Files/RuO2-110-0-234/RuO2-110-0-234.save/
     NEW-OLD atomic charge density approx. for the potential

     Check: negative core charge=   -0.000001

     negative rho (up, down):  1.433E-04 0.000E+00

     add environment contribution to local potential
     Polarization accuracy = 4.9E-12, # of iterations =  43

     total cpu time spent up to now is    13004.6 secs

     per-process dynamical memory:   211.8 Mb

     Self-consistent Calculation

     iteration #  1     ecut=    50.00 Ry     beta= 0.70
     Davidson diagonalization with overlap
     ethr =  1.00E-06,  avg # of iterations =  6.0

     negative rho (up, down):  3.712E-04 0.000E+00

     add environment contribution to local potential
     Polarization accuracy = 2.4E-12, # of iterations =  44

     total cpu time spent up to now is    13300.4 secs

     total energy              =   -3435.21160739 Ry
     estimated scf accuracy    <       0.01959456 Ry
     electrostatic embedding   =      -0.09656081 Ry
     cavitation energy         =       0.02145219 Ry
     PV energy                 =      -0.08165266 Ry
     correction to one-el term =     180.33346040 Ry

     iteration #  2     ecut=    50.00 Ry     beta= 0.70
     Davidson diagonalization with overlap
     ethr =  5.35E-06,  avg # of iterations =  2.0

     negative rho (up, down):  3.478E-04 0.000E+00

     add environment contribution to local potential
     Polarization accuracy = 2.5E-12, # of iterations =  44

     total cpu time spent up to now is    13600.8 secs

     total energy              =   -3435.21238801 Ry
     estimated scf accuracy    <       0.02595907 Ry
     electrostatic embedding   =      -0.09829725 Ry
     cavitation energy         =       0.02148030 Ry
     PV energy                 =      -0.08157156 Ry
     correction to one-el term =     180.45340145 Ry

     iteration #  3     ecut=    50.00 Ry     beta= 0.70
     Davidson diagonalization with overlap
     ethr =  5.35E-06,  avg # of iterations =  1.0

     negative rho (up, down):  4.333E-04 0.000E+00

     add environment contribution to local potential
     Polarization accuracy = 2.6E-12, # of iterations =  44

     total cpu time spent up to now is    13928.4 secs

     total energy              =   -3435.21320821 Ry
     estimated scf accuracy    <       0.00414209 Ry
     electrostatic embedding   =      -0.09849658 Ry
     cavitation energy         =       0.02147134 Ry
     PV energy                 =      -0.08158290 Ry
     correction to one-el term =     180.41216580 Ry

     iteration #  4     ecut=    50.00 Ry     beta= 0.70
     Davidson diagonalization with overlap
     ethr =  1.13E-06,  avg # of iterations =  2.0

     negative rho (up, down):  4.535E-04 0.000E+00

     add environment contribution to local potential
     Polarization accuracy = 2.3E-12, # of iterations =  45

     total cpu time spent up to now is    14226.1 secs

     total energy              =   -3435.21331572 Ry
     estimated scf accuracy    <       0.00094540 Ry
     electrostatic embedding   =      -0.09937180 Ry
     cavitation energy         =       0.02146431 Ry
     PV energy                 =      -0.08157889 Ry
     correction to one-el term =     180.43892329 Ry

     iteration #  5     ecut=    50.00 Ry     beta= 0.70
     Davidson diagonalization with overlap
     ethr =  2.58E-07,  avg # of iterations =  2.0

     negative rho (up, down):  4.285E-04 0.000E+00

     add environment contribution to local potential
     Polarization accuracy = 6.7E-12, # of iterations =  44

     total cpu time spent up to now is    14495.6 secs

     total energy              =   -3435.21336398 Ry
     estimated scf accuracy    <       0.00035487 Ry
     electrostatic embedding   =      -0.09978447 Ry
     cavitation energy         =       0.02145777 Ry
     PV energy                 =      -0.08158018 Ry
     correction to one-el term =     180.44536697 Ry

     iteration #  6     ecut=    50.00 Ry     beta= 0.70
     Davidson diagonalization with overlap
     ethr =  9.70E-08,  avg # of iterations =  2.0

     negative rho (up, down):  3.753E-04 0.000E+00

     add environment contribution to local potential
     Polarization accuracy = 2.1E-12, # of iterations =  45

     total cpu time spent up to now is    14756.3 secs

     total energy              =   -3435.21340091 Ry
     estimated scf accuracy    <       0.00006611 Ry
     electrostatic embedding   =      -0.10023407 Ry
     cavitation energy         =       0.02144828 Ry
     PV energy                 =      -0.08158627 Ry
     correction to one-el term =     180.42951254 Ry

     iteration #  7     ecut=    50.00 Ry     beta= 0.70
     Davidson diagonalization with overlap
     ethr =  1.81E-08,  avg # of iterations =  2.0

     negative rho (up, down):  2.903E-04 0.000E+00

     add environment contribution to local potential
     Polarization accuracy = 2.0E-12, # of iterations =  44

     total cpu time spent up to now is    15067.8 secs

     total energy              =   -3435.21340519 Ry
     estimated scf accuracy    <       0.00005198 Ry
     electrostatic embedding   =      -0.10045197 Ry
     cavitation energy         =       0.02144312 Ry
     PV energy                 =      -0.08159022 Ry
     correction to one-el term =     180.40525690 Ry

     iteration #  8     ecut=    50.00 Ry     beta= 0.70
     Davidson diagonalization with overlap
     ethr =  1.42E-08,  avg # of iterations =  2.0

     negative rho (up, down):  2.037E-04 0.000E+00

     add environment contribution to local potential
     Polarization accuracy = 9.9E-12, # of iterations =  44

     total cpu time spent up to now is    15411.0 secs

     total energy              =   -3435.21341157 Ry
     estimated scf accuracy    <       0.00000555 Ry
     electrostatic embedding   =      -0.10080137 Ry
     cavitation energy         =       0.02143600 Ry
     PV energy                 =      -0.08159456 Ry
     correction to one-el term =     180.36416451 Ry

     iteration #  9     ecut=    50.00 Ry     beta= 0.70
     Davidson diagonalization with overlap
     ethr =  1.52E-09,  avg # of iterations =  2.0

     negative rho (up, down):  1.718E-04 0.000E+00

     add environment contribution to local potential
     Polarization accuracy = 1.9E-12, # of iterations =  45

     total cpu time spent up to now is    15673.5 secs

     total energy              =   -3435.21341546 Ry
     estimated scf accuracy    <       0.00000219 Ry
     electrostatic embedding   =      -0.10114337 Ry
     cavitation energy         =       0.02143156 Ry
     PV energy                 =      -0.08159557 Ry
     correction to one-el term =     180.31746871 Ry

     iteration # 10     ecut=    50.00 Ry     beta= 0.70
     Davidson diagonalization with overlap
     ethr =  5.98E-10,  avg # of iterations =  3.0

     negative rho (up, down):  1.476E-04 0.000E+00

     add environment contribution to local potential
     Polarization accuracy = 2.0E-12, # of iterations =  44

     total cpu time spent up to now is    15978.4 secs

     total energy              =   -3435.21341636 Ry
     estimated scf accuracy    <       0.00000123 Ry
     electrostatic embedding   =      -0.10126951 Ry
     cavitation energy         =       0.02143112 Ry
     PV energy                 =      -0.08159454 Ry
     correction to one-el term =     180.29827054 Ry

     iteration # 11     ecut=    50.00 Ry     beta= 0.70
     Davidson diagonalization with overlap
     ethr =  3.36E-10,  avg # of iterations =  2.0

     negative rho (up, down):  1.301E-04 0.000E+00

     add environment contribution to local potential
     Polarization accuracy = 2.0E-12, # of iterations =  44

     total cpu time spent up to now is    16269.7 secs

     total energy              =   -3435.21341672 Ry
     estimated scf accuracy    <       0.00000052 Ry
     electrostatic embedding   =      -0.10137239 Ry
     cavitation energy         =       0.02143117 Ry
     PV energy                 =      -0.08159316 Ry
     correction to one-el term =     180.28248437 Ry

     iteration # 12     ecut=    50.00 Ry     beta= 0.70
     Davidson diagonalization with overlap
     ethr =  1.43E-10,  avg # of iterations =  3.0

     negative rho (up, down):  1.152E-04 0.000E+00

     add environment contribution to local potential
     Polarization accuracy = 2.0E-12, # of iterations =  44

     total cpu time spent up to now is    16534.8 secs

     total energy              =   -3435.21341694 Ry
     estimated scf accuracy    <       0.00000062 Ry
     electrostatic embedding   =      -0.10145414 Ry
     cavitation energy         =       0.02143184 Ry
     PV energy                 =      -0.08159127 Ry
     correction to one-el term =     180.26985109 Ry

     iteration # 13     ecut=    50.00 Ry     beta= 0.70
     Davidson diagonalization with overlap
     ethr =  1.43E-10,  avg # of iterations =  2.0

     negative rho (up, down):  1.178E-04 0.000E+00

     add environment contribution to local potential
     Polarization accuracy = 2.5E-12, # of iterations =  44

     total cpu time spent up to now is    16851.5 secs

     total energy              =   -3435.21341716 Ry
     estimated scf accuracy    <       0.00000008 Ry
     electrostatic embedding   =      -0.10154151 Ry
     cavitation energy         =       0.02143246 Ry
     PV energy                 =      -0.08158943 Ry
     correction to one-el term =     180.25682567 Ry

     iteration # 14     ecut=    50.00 Ry     beta= 0.70
     Davidson diagonalization with overlap
     ethr =  2.08E-11,  avg # of iterations =  2.0

     negative rho (up, down):  1.201E-04 0.000E+00

     add environment contribution to local potential
     Polarization accuracy = 4.5E-12, # of iterations =  44

     total cpu time spent up to now is    17144.4 secs

     total energy              =   -3435.21341722 Ry
     estimated scf accuracy    <       0.00000011 Ry
     electrostatic embedding   =      -0.10155681 Ry
     cavitation energy         =       0.02143255 Ry
     PV energy                 =      -0.08158913 Ry
     correction to one-el term =     180.25578000 Ry

     iteration # 15     ecut=    50.00 Ry     beta= 0.70
     Davidson diagonalization with overlap
[...]
     atom   29 type  2   force =     0.10078522    0.09976028 -166.41534409
     atom   30 type  2   force =    -0.10078522    0.09976028 -166.41534409
     atom   31 type  1   force =    -0.47758686    0.87751705  -61.79485156
     atom   32 type  1   force =     0.47758686    0.87751705  -61.79485156
     atom   33 type  2   force =    -0.00000000   -0.35571697 -165.36014530
     atom   34 type  2   force =    -0.00000000   -0.16409294 -171.63911371
     atom   35 type  1   force =    -0.44065354   -0.93097214  -62.13551771
     atom   36 type  1   force =     0.44065354   -0.93097214  -62.13551771
     atom   37 type  1   force =    -0.00000000    1.01788283  -90.65551819
     atom   38 type  1   force =     0.00000000    0.52352378  -90.38839161
     atom   39 type  1   force =     0.00000000    1.22823140  -93.48888047
     atom   40 type  1   force =     0.00000000   -0.19915436  -97.90099406
     atom   41 type  3   force =    -0.00000000   -1.99537055   17.16421769
     atom   42 type  3   force =    -0.00000000   -1.99537055  -17.16421769
     atom   43 type  3   force =     0.00000000   -1.11736875   17.84343731
     atom   44 type  3   force =     0.00000000   -1.11736875  -17.84343731
     atom   45 type  3   force =    -0.00000000   -3.05426984   16.06067239
     atom   46 type  3   force =    -0.00000000   -3.05426984  -16.06067239
     The core correction contribution to forces
     atom    1 type  1   force =     0.00000000   -0.01745434   -0.00349708
     atom    2 type  1   force =     0.00000000    0.00032315   -0.01044707
     atom    3 type  1   force =    -0.00000000   -0.01412413    0.00234777
     atom    4 type  1   force =    -0.00000000   -0.00800499    0.00748890
     atom    5 type  2   force =     0.00000000    0.00000000    0.00000000
     atom    6 type  2   force =     0.00000000    0.00000000    0.00000000
     atom    7 type  1   force =    -0.00087490   -0.00053994    0.00062797
     atom    8 type  1   force =     0.00087490   -0.00053994    0.00062797
     atom    9 type  2   force =     0.00000000    0.00000000    0.00000000
     atom   10 type  2   force =     0.00000000    0.00000000    0.00000000
     atom   11 type  1   force =    -0.00066037    0.00091767    0.00052047
     atom   12 type  1   force =     0.00066037    0.00091767    0.00052047
     atom   13 type  1   force =     0.00000000   -0.00033849    0.00032158
     atom   14 type  1   force =     0.00000000   -0.00043687    0.00035893
     atom   15 type  1   force =    -0.00000000   -0.00026529   -0.00037449
     atom   16 type  1   force =     0.00000000    0.00001482   -0.00364759
     atom   17 type  2   force =     0.00000000    0.00000000    0.00000000
     atom   18 type  2   force =     0.00000000    0.00000000    0.00000000
     atom   19 type  1   force =    -0.00028703    0.00001444   -0.00000193
     atom   20 type  1   force =     0.00028703    0.00001444   -0.00000193
     atom   21 type  2   force =     0.00000000    0.00000000    0.00000000
     atom   22 type  2   force =     0.00000000    0.00000000    0.00000000
     atom   23 type  1   force =    -0.00021692    0.00001506   -0.00000192
     atom   24 type  1   force =     0.00021692    0.00001506   -0.00000192
     atom   25 type  1   force =     0.00000000   -0.00026531    0.00037222
     atom   26 type  1   force =     0.00000000    0.00001481    0.00364551
     atom   27 type  1   force =     0.00000000   -0.00033851   -0.00032376
     atom   28 type  1   force =    -0.00000000   -0.00043689   -0.00036110
     atom   29 type  2   force =     0.00000000    0.00000000    0.00000000
     atom   30 type  2   force =     0.00000000    0.00000000    0.00000000
     atom   31 type  1   force =    -0.00087487   -0.00053980   -0.00062967
     atom   32 type  1   force =     0.00087487   -0.00053980   -0.00062967
     atom   33 type  2   force =     0.00000000    0.00000000    0.00000000
     atom   34 type  2   force =     0.00000000    0.00000000    0.00000000
     atom   35 type  1   force =    -0.00066031    0.00091759   -0.00052219
     atom   36 type  1   force =     0.00066031    0.00091759   -0.00052219
     atom   37 type  1   force =     0.00000000   -0.01412644   -0.00235226
     atom   38 type  1   force =    -0.00000000   -0.00800638   -0.00749450
     atom   39 type  1   force =     0.00000000   -0.01745501    0.00349444
     atom   40 type  1   force =     0.00000000    0.00032314    0.01044533
     atom   41 type  3   force =     0.00000000    0.00000000    0.00000000
     atom   42 type  3   force =     0.00000000    0.00000000    0.00000000
     atom   43 type  3   force =     0.00000000    0.00000000    0.00000000
     atom   44 type  3   force =     0.00000000    0.00000000    0.00000000
     atom   45 type  3   force =     0.00000000    0.00000000    0.00000000
     atom   46 type  3   force =     0.00000000    0.00000000    0.00000000
     The Hubbard contrib.    to forces
     atom    1 type  1   force =     0.00000000    0.00000000    0.00000000
     atom    2 type  1   force =     0.00000000    0.00000000    0.00000000
     atom    3 type  1   force =     0.00000000    0.00000000    0.00000000
     atom    4 type  1   force =     0.00000000    0.00000000    0.00000000
     atom    5 type  2   force =     0.00000000    0.00000000    0.00000000
     atom    6 type  2   force =     0.00000000    0.00000000    0.00000000
     atom    7 type  1   force =     0.00000000    0.00000000    0.00000000
     atom    8 type  1   force =     0.00000000    0.00000000    0.00000000
     atom    9 type  2   force =     0.00000000    0.00000000    0.00000000
     atom   10 type  2   force =     0.00000000    0.00000000    0.00000000
     atom   11 type  1   force =     0.00000000    0.00000000    0.00000000
     atom   12 type  1   force =     0.00000000    0.00000000    0.00000000
     atom   13 type  1   force =     0.00000000    0.00000000    0.00000000
     atom   14 type  1   force =     0.00000000    0.00000000    0.00000000
     atom   15 type  1   force =     0.00000000    0.00000000    0.00000000
     atom   16 type  1   force =     0.00000000    0.00000000    0.00000000
     atom   17 type  2   force =     0.00000000    0.00000000    0.00000000
     atom   18 type  2   force =     0.00000000    0.00000000    0.00000000
     atom   19 type  1   force =     0.00000000    0.00000000    0.00000000
     atom   20 type  1   force =     0.00000000    0.00000000    0.00000000
     atom   21 type  2   force =     0.00000000    0.00000000    0.00000000
     atom   22 type  2   force =     0.00000000    0.00000000    0.00000000
     atom   23 type  1   force =     0.00000000    0.00000000    0.00000000
     atom   24 type  1   force =     0.00000000    0.00000000    0.00000000
     atom   25 type  1   force =     0.00000000    0.00000000    0.00000000
     atom   26 type  1   force =     0.00000000    0.00000000    0.00000000
     atom   27 type  1   force =     0.00000000    0.00000000    0.00000000
     atom   28 type  1   force =     0.00000000    0.00000000    0.00000000
     atom   29 type  2   force =     0.00000000    0.00000000    0.00000000
     atom   30 type  2   force =     0.00000000    0.00000000    0.00000000
     atom   31 type  1   force =     0.00000000    0.00000000    0.00000000
     atom   32 type  1   force =     0.00000000    0.00000000    0.00000000
     atom   33 type  2   force =     0.00000000    0.00000000    0.00000000
     atom   34 type  2   force =     0.00000000    0.00000000    0.00000000
     atom   35 type  1   force =     0.00000000    0.00000000    0.00000000
     atom   36 type  1   force =     0.00000000    0.00000000    0.00000000
     atom   37 type  1   force =     0.00000000    0.00000000    0.00000000
     atom   38 type  1   force =     0.00000000    0.00000000    0.00000000
     atom   39 type  1   force =     0.00000000    0.00000000    0.00000000
     atom   40 type  1   force =     0.00000000    0.00000000    0.00000000
     atom   41 type  3   force =     0.00000000    0.00000000    0.00000000
     atom   42 type  3   force =     0.00000000    0.00000000    0.00000000
     atom   43 type  3   force =     0.00000000    0.00000000    0.00000000
     atom   44 type  3   force =     0.00000000    0.00000000    0.00000000
     atom   45 type  3   force =     0.00000000    0.00000000    0.00000000
     atom   46 type  3   force =     0.00000000    0.00000000    0.00000000
     The SCF correction term to forces
     atom    1 type  1   force =    -0.00000000   -0.00000032   -0.00000030
     atom    2 type  1   force =     0.00000000    0.00000015    0.00000087
     atom    3 type  1   force =    -0.00000000   -0.00000027    0.00000015
     atom    4 type  1   force =    -0.00000000    0.00000020    0.00000174
     atom    5 type  2   force =    -0.00000073   -0.00000036    0.00000527
     atom    6 type  2   force =     0.00000073   -0.00000036    0.00000527
     atom    7 type  1   force =     0.00000097    0.00000006    0.00000157
     atom    8 type  1   force =    -0.00000097    0.00000006    0.00000157
     atom    9 type  2   force =     0.00000000    0.00000102    0.00000441
     atom   10 type  2   force =     0.00000000    0.00000047    0.00000354
     atom   11 type  1   force =     0.00000070    0.00000010    0.00000154
     atom   12 type  1   force =    -0.00000070    0.00000010    0.00000154
     atom   13 type  1   force =     0.00000000   -0.00000054    0.00000364
     atom   14 type  1   force =    -0.00000000   -0.00000052    0.00000320
     atom   15 type  1   force =     0.00000000    0.00000093    0.00000273
     atom   16 type  1   force =    -0.00000000    0.00000073    0.00000184
     atom   17 type  2   force =    -0.00000000   -0.00000192   -0.00000017
     atom   18 type  2   force =    -0.00000000   -0.00000173   -0.00000017
     atom   19 type  1   force =    -0.00000047   -0.00000102   -0.00000006
     atom   20 type  1   force =     0.00000047   -0.00000102   -0.00000006
     atom   21 type  2   force =     0.00000028    0.00000129   -0.00000017
     atom   22 type  2   force =    -0.00000028    0.00000129   -0.00000017
     atom   23 type  1   force =    -0.00000056    0.00000065   -0.00000006
     atom   24 type  1   force =     0.00000056    0.00000065   -0.00000006
     atom   25 type  1   force =     0.00000000    0.00000093   -0.00000284
     atom   26 type  1   force =    -0.00000000    0.00000073   -0.00000195
     atom   27 type  1   force =    -0.00000000   -0.00000054   -0.00000373
     atom   28 type  1   force =     0.00000000   -0.00000053   -0.00000329
     atom   29 type  2   force =    -0.00000073   -0.00000035   -0.00000535
     atom   30 type  2   force =     0.00000073   -0.00000035   -0.00000535
     atom   31 type  1   force =     0.00000097    0.00000006   -0.00000160
     atom   32 type  1   force =    -0.00000097    0.00000006   -0.00000160
     atom   33 type  2   force =     0.00000000    0.00000102   -0.00000449
     atom   34 type  2   force =    -0.00000000    0.00000047   -0.00000360
     atom   35 type  1   force =     0.00000070    0.00000010   -0.00000157
     atom   36 type  1   force =    -0.00000070    0.00000010   -0.00000157
     atom   37 type  1   force =     0.00000000   -0.00000027   -0.00000013
     atom   38 type  1   force =     0.00000000    0.00000020   -0.00000172
     atom   39 type  1   force =     0.00000000   -0.00000032    0.00000034
     atom   40 type  1   force =    -0.00000000    0.00000015   -0.00000083
     atom   41 type  3   force =    -0.00000000   -0.00000004    0.00000005
     atom   42 type  3   force =    -0.00000000   -0.00000004   -0.00000004
     atom   43 type  3   force =     0.00000000    0.00000007   -0.00000000
     atom   44 type  3   force =     0.00000000    0.00000007    0.00000001
     atom   45 type  3   force =    -0.00000000    0.00000006    0.00000003
     atom   46 type  3   force =     0.00000000    0.00000006   -0.00000002

     Total force =     0.010389     Total SCF correction =     0.000017
     Energy error            =      1.6E-04 Ry
     Gradient error          =      2.7E-03 Ry/Bohr

     number of scf cycles    =  36
     number of bfgs steps    =  35

     energy             old  =   -3435.3108771246 Ry
     energy             new  =   -3435.3110396423 Ry

     CASE: energy            _new < energy            _old

     new trust radius        =       0.0280551659 bohr
     new conv_thr            =            1.6E-11 Ry


ATOMIC_POSITIONS (crystal)
O             0.0000000000        0.4992839048        0.2681754413
O             0.5000000000        0.5180993156        0.2709741952
O             0.0000000000        0.0143208585        0.2996903862
O             0.5000000000        0.0136023987        0.3024152243
Ru            0.2506574400        0.0149450226        0.3585320023
Ru            0.7493425600        0.0149450226        0.3585320023
O             0.2479780924        0.3220071526        0.3573473448
O             0.7520219076        0.3220071526        0.3573473448
Ru            0.0000000000        0.5144884755        0.3564924915
Ru            0.5000000000        0.5151468423        0.3488205330
O             0.2453072592        0.7077002073        0.3567741398
O             0.7546927408        0.7077002073        0.3567741398
O             0.0000000000        0.0129337374        0.4110485186
O             0.5000000000        0.0115778826        0.4119083268
O             0.0000000000        0.5127549970        0.4466920530
O             0.5000000000        0.5143508669        0.4410981243
Ru            0.0000000000        0.0129390185        0.5000010000
Ru            0.5000000000        0.0124119444        0.5000010000
O             0.2509907395        0.2022789015        0.5000010000
O             0.7490092605        0.2022789015        0.5000010000
Ru            0.2546609700        0.5129688202        0.5000010000
Ru            0.7453390300        0.5129688202        0.5000010000
O             0.2505953277        0.8227898850        0.5000010000
O             0.7494046723        0.8227898850        0.5000010000
O             0.0000000000        0.5127549970        0.5533089470
O             0.5000000000        0.5143508669        0.5589028757
O             0.0000000000        0.0129337374        0.5889524814
O             0.5000000000        0.0115778826        0.5880926732
Ru            0.2506574400        0.0149450226        0.6414689977
Ru            0.7493425600        0.0149450226        0.6414689977
O             0.2479780924        0.3220071526        0.6426536552
O             0.7520219076        0.3220071526        0.6426536552
Ru            0.0000000000        0.5144884755        0.6435085085
Ru            0.5000000000        0.5151468423        0.6511804670
O             0.2453072592        0.7077002073        0.6432268602
O             0.7546927408        0.7077002073        0.6432268602
O             0.0000000000        0.0143208585        0.7003116138
O             0.5000000000        0.0136023987        0.6975867757
O             0.0000000000        0.4992839048        0.7318255587
O             0.5000000000        0.5180993156        0.7290268048
H             0.0000000000        0.1302384292        0.2697826479
H             0.0000000000        0.1302384292        0.7302173521
H             0.5000000000        0.0726230447        0.2615480042
H             0.5000000000        0.0726230447        0.7384519958
H             0.0000000000        0.6447783936        0.2515528992
H             0.0000000000        0.6447783936        0.7484471008



     Writing config-only to output data dir /storage/home/mgm6007/ixd4/Maria/Strain0_Files/RuO2-110-0-234/RuO2-110-0-234.save/
     NEW-OLD atomic charge density approx. for the potential

     Check: negative core charge=   -0.000001

     negative rho (up, down):  1.364E-04 0.000E+00

     add environment contribution to local potential
     Polarization accuracy = 3.9E-12, # of iterations =  43

     total cpu time spent up to now is   211610.3 secs

     per-process dynamical memory:   236.3 Mb

     Self-consistent Calculation

     iteration #  1     ecut=    50.00 Ry     beta= 0.70
     Davidson diagonalization with overlap
     ethr =  1.00E-06,  avg # of iterations =  4.0

     negative rho (up, down):  9.832E-05 0.000E+00

     add environment contribution to local potential
     Polarization accuracy = 3.3E-12, # of iterations =  43

     total cpu time spent up to now is   211848.5 secs

     total energy              =   -3435.31116965 Ry
     estimated scf accuracy    <       0.00041821 Ry
     electrostatic embedding   =      -0.06089743 Ry
     cavitation energy         =       0.02152594 Ry
     PV energy                 =      -0.08268952 Ry
     correction to one-el term =     181.17065728 Ry

     iteration #  2     ecut=    50.00 Ry     beta= 0.70
     Davidson diagonalization with overlap
     ethr =  1.14E-07,  avg # of iterations =  2.0

     negative rho (up, down):  7.564E-05 0.000E+00

     add environment contribution to local potential
     Polarization accuracy = 2.9E-12, # of iterations =  43

     total cpu time spent up to now is   212094.3 secs

     total energy              =   -3435.31119764 Ry
     estimated scf accuracy    <       0.00015772 Ry
     electrostatic embedding   =      -0.06085873 Ry
     cavitation energy         =       0.02149847 Ry
     PV energy                 =      -0.08269394 Ry
     correction to one-el term =     181.20012177 Ry

     iteration #  3     ecut=    50.00 Ry     beta= 0.70
     Davidson diagonalization with overlap
     ethr =  4.31E-08,  avg # of iterations =  2.0

     negative rho (up, down):  6.242E-05 0.000E+00

     add environment contribution to local potential
     Polarization accuracy = 9.6E-12, # of iterations =  42

     total cpu time spent up to now is   212427.4 secs

     total energy              =   -3435.31120806 Ry
     estimated scf accuracy    <       0.00025211 Ry
     electrostatic embedding   =      -0.06083861 Ry
     cavitation energy         =       0.02148425 Ry
     PV energy                 =      -0.08269734 Ry
     correction to one-el term =     181.20431891 Ry

     iteration #  4     ecut=    50.00 Ry     beta= 0.70
     Davidson diagonalization with overlap
     ethr =  4.31E-08,  avg # of iterations =  2.0

     negative rho (up, down):  6.004E-05 0.000E+00

     add environment contribution to local potential
     Polarization accuracy = 6.1E-12, # of iterations =  42

     total cpu time spent up to now is   212769.4 secs

     total energy              =   -3435.31122633 Ry
     estimated scf accuracy    <       0.00001126 Ry
     electrostatic embedding   =      -0.06085554 Ry
     cavitation energy         =       0.02147266 Ry
     PV energy                 =      -0.08269828 Ry
     correction to one-el term =     181.21182605 Ry

     iteration #  5     ecut=    50.00 Ry     beta= 0.70
     Davidson diagonalization with overlap
     ethr =  3.08E-09,  avg # of iterations =  5.0

     negative rho (up, down):  5.982E-05 0.000E+00

     add environment contribution to local potential
     Polarization accuracy = 3.0E-12, # of iterations =  44

     total cpu time spent up to now is   213135.6 secs

     total energy              =   -3435.31122865 Ry
     estimated scf accuracy    <       0.00001067 Ry
     electrostatic embedding   =      -0.06086963 Ry
     cavitation energy         =       0.02147012 Ry
     PV energy                 =      -0.08269711 Ry
     correction to one-el term =     181.21385111 Ry

     iteration #  6     ecut=    50.00 Ry     beta= 0.70
     Davidson diagonalization with overlap
     ethr =  2.92E-09,  avg # of iterations =  2.0

     negative rho (up, down):  6.266E-05 0.000E+00

     add environment contribution to local potential
     Polarization accuracy = 3.6E-12, # of iterations =  43
