
     Program PWSCF v.7.2 starts on 18Jul2023 at 16:10:56 
        Git branch: heads/qe-7.2
        Last git commit: b4c5e8deeb7d1863e7553a87b45f8d22c21926a5
        Last git commit date: Mon Mar 27 16:12:09 2023 +0000
        Last git commit subject: Merge branch 'merge_fix_hubbard' into 'develop'

     This program is part of the open-source Quantum ESPRESSO suite
     for quantum simulation of materials; please cite
         "P. Giannozzi et al., J. Phys.:Condens. Matter 21 395502 (2009);
         "P. Giannozzi et al., J. Phys.:Condens. Matter 29 465901 (2017);
         "P. Giannozzi et al., J. Chem. Phys. 152 154105 (2020);
          URL http://www.quantum-espresso.org", 
     in publications or presentations arising from this work. More details at
     http://www.quantum-espresso.org/quote

     Parallel version (MPI), running on    20 processors

     MPI processes distributed on     1 nodes
     106380 MiB available memory on the printing compute node when the environment starts
 
     Reading input from RuO2-110-0-025.in

     Current dimensions of program PWSCF are:
     Max number of different atomic species (ntypx) = 10
     Max number of k-points (npk) =  40000
     Max angular momentum in pseudopotentials (lmaxx) =  4
 
     Reading input from environ.in:
     * Environ restarting
     * setting up water environment
     * using electronic solvent mode
     * setting boundary derivatives method to SCCS default
     

     File /storage/home/mgm6007/ixd4/Maria/Strain1_Files/RuO2-110-0-025/RuO2-110-0-025.update deleted, as requested

     File /storage/home/mgm6007/ixd4/Maria/Strain1_Files/RuO2-110-0-025/RuO2-110-0-025.bfgs deleted, as requested
     file O.pbe-n-kjpaw_psl.0.1.UPF: wavefunction(s)  2P renormalized
     Message from routine setup:
     using ibrav=0 with symmetry is DISCOURAGED, use correct ibrav instead
 
     R & G space division:  proc/nbgrp/npool/nimage =      20
     Subspace diagonalization in iterative solution of the eigenvalue problem:
     one sub-group per band group will be used
     scalapack distributed-memory algorithm (size of sub-group:  2*  2 procs)

 
     Parallelization info
     --------------------
     sticks:   dense  smooth     PW     G-vecs:    dense   smooth      PW
     Min         276     110     29                54830    13868    1873
     Max         277     111     30                54841    13883    1882
     Sum        5527    2209    585              1096679   277485   37533
 
     Using Slab Decomposition
 


     bravais-lattice index     =            0
     lattice parameter (alat)  =      12.3893  a.u.
     unit-cell volume          =    5808.5831 (a.u.)^3
     number of atoms/cell      =           46
     number of atomic types    =            3
     number of electrons       =       366.00
     number of Kohn-Sham states=          220
     kinetic-energy cutoff     =      50.0000  Ry
     charge density cutoff     =     500.0000  Ry
     scf convergence threshold =      1.0E-09
     mixing beta               =       0.7000
     number of iterations used =            8  local-TF  mixing
     energy convergence thresh.=      1.0E-04
     force convergence thresh. =      1.0E-04
     Exchange-correlation= PBE
                           (   1   4   3   4   0   0   0)
     nstep                     =          200


     ================================================================================
 
                                  Environ Setup Summary

     ================================================================================
 
     Please cite

          O. Andreussi, I. Dabo and N. Marzari, J. Chem. Phys. 136, 064102 (2012)

     in publications or presentations arising from this work.

     ================================================================================
 
     Parameters
     ==========

     compensation onset threshold      =               0.1000E+00
     static permittivity               =                    78.30
     surface tension in input (dyn/cm) =                    47.90
     surface tension in internal units =               0.6153E-04
     external pressure in input (GPa)  =                    -0.36
     external pressure in inter. units =              -0.2447E-04

     Solvent Boundary
     ================

     solvent mode                      =               electronic
     derivatives method                =                    chain
     numerical core for derivatives    =                      fft
     switching function adopted        =                     SCCS
     density limit for vacuum region   =               0.5000E-02
     density limit for bulk solvent    =               0.1000E-03

     Electrostatic Setup
     ===================

     electrostatic problem to solve    =              generalized
     numerical solver adopted          =                       cg
     type of auxiliary density adopted =                     none
     numerical core for poisson        =                      fft
     type of pbc corrections           =                parabolic
     numerical core for corrections    =                      1da

     ================================================================================
 

     celldm(1)=  12.389316  celldm(2)=   0.000000  celldm(3)=   0.000000
     celldm(4)=   0.000000  celldm(5)=   0.000000  celldm(6)=   0.000000

     crystal axes: (cart. coord. in units of alat)
               a(1) = (   1.000000   0.000000   0.000000 )  
               a(2) = (   0.000000   0.904766   0.000000 )  
               a(3) = (   0.000000   0.000000   3.375918 )  

     reciprocal axes: (cart. coord. in units 2 pi/alat)
               b(1) = (  1.000000  0.000000  0.000000 )  
               b(2) = (  0.000000  1.105258  0.000000 )  
               b(3) = (  0.000000  0.000000  0.296216 )  


     PseudoPot. # 1 for O  read from file:
     /gpfs/group/ixd4/default/Simon/pseudopotentials/materialscloud/SSSP_1.3.0_PBE_efficiency/O.pbe-n-kjpaw_psl.0.1.UPF
     MD5 check sum: 0234752ac141de4415c5fc33072bef88
     Pseudo is Projector augmented-wave + core cor, Zval =  6.0
     Generated using "atomic" code by A. Dal Corso  v.5.0.99 svn rev. 10869
     Shape of augmentation charge: BESSEL
     Using radial grid of 1095 points,  4 beta functions with: 
                l(1) =   0
                l(2) =   0
                l(3) =   1
                l(4) =   1
     Q(r) pseudized with 0 coefficients 


     PseudoPot. # 2 for Ru read from file:
     /gpfs/group/ixd4/default/Simon/pseudopotentials/materialscloud/SSSP_1.3.0_PBE_efficiency/Ru_ONCV_PBE-1.0.oncvpsp.upf
     MD5 check sum: be037bb81c227cfb9b1461a9f099f4bd
     Pseudo is Norm-conserving, Zval = 16.0
     Generated using ONCVPSP code by D. R. Hamann
     Using radial grid of 1458 points,  6 beta functions with: 
                l(1) =   0
                l(2) =   0
                l(3) =   1
                l(4) =   1
                l(5) =   2
                l(6) =   2

     PseudoPot. # 3 for H  read from file:
     /gpfs/group/ixd4/default/Simon/pseudopotentials/materialscloud/SSSP_1.3.0_PBE_efficiency/H.pbe-rrkjus_psl.1.0.0.UPF
     MD5 check sum: f52b6d4d1c606e5624b1dc7b2218f220
     Pseudo is Ultrasoft, Zval =  1.0
     Generated using "atomic" code by A. Dal Corso  v.5.1
     Using radial grid of  929 points,  2 beta functions with: 
                l(1) =   0
                l(2) =   0
     Q(r) pseudized with 0 coefficients 


     atomic species   valence    mass     pseudopotential
        O              6.00    15.99940     O ( 1.00)
        Ru            16.00   101.07000     Ru( 1.00)
        H              1.00     1.00794     H ( 1.00)

      2 Sym. Ops. (no inversion) found



   Cartesian axes

     site n.     atom                  positions (alat units)
         1           O   tau(   1) = (   0.0027843   0.3963648   0.9071664  )
         2           O   tau(   2) = (   0.4860980   0.4388922   0.9206477  )
         3           O   tau(   3) = (   0.0004714   0.0065114   1.0176773  )
         4           O   tau(   4) = (   0.4991119  -0.0000351   1.0282226  )
         5           Ru  tau(   5) = (   0.2494415  -0.0033936   1.2118665  )
         6           Ru  tau(   6) = (   0.7501985  -0.0037091   1.2109202  )
         7           O   tau(   7) = (   0.2482723   0.2789386   1.2243700  )
         8           O   tau(   8) = (   0.7499595   0.2791251   1.2159735  )
         9           Ru  tau(   9) = (  -0.0007075   0.4483545   1.2068656  )
        10           Ru  tau(  10) = (   0.5000666   0.4477021   1.1844631  )
        11           O   tau(  11) = (   0.2423973   0.6204718   1.1958673  )
        12           O   tau(  12) = (   0.7549571   0.6187814   1.1930893  )
        13           O   tau(  13) = (  -0.0007433  -0.0040327   1.3880602  )
        14           O   tau(  14) = (   0.5009824  -0.0072396   1.3900914  )
        15           O   tau(  15) = (  -0.0032314   0.4568207   1.5063072  )
        16           O   tau(  16) = (   0.4968612   0.4575058   1.4950670  )
        17           Ru  tau(  17) = (   0.0021032   0.0017920   1.6879622  )
        18           Ru  tau(  18) = (   0.5026455   0.0033387   1.6879622  )
        19           O   tau(  19) = (   0.2540340   0.1717207   1.6879622  )
        20           O   tau(  20) = (   0.7544151   0.1712172   1.6879622  )
        21           Ru  tau(  21) = (   0.2460861   0.4558174   1.6879622  )
        22           Ru  tau(  22) = (   0.7422024   0.4553604   1.6879622  )
        23           O   tau(  23) = (   0.2549005   0.7396311   1.6879622  )
        24           O   tau(  24) = (   0.7536251   0.7392271   1.6879622  )
        25           O   tau(  25) = (  -0.0032314   0.4568207   1.8696137  )
        26           O   tau(  26) = (   0.4968612   0.4575058   1.8808539  )
        27           O   tau(  27) = (  -0.0007433  -0.0040327   1.9878608  )
        28           O   tau(  28) = (   0.5009824  -0.0072396   1.9858295  )
        29           Ru  tau(  29) = (   0.2494415  -0.0033936   2.1640544  )
        30           Ru  tau(  30) = (   0.7501985  -0.0037091   2.1650008  )
        31           O   tau(  31) = (   0.2482723   0.2789386   2.1515509  )
        32           O   tau(  32) = (   0.7499595   0.2791251   2.1599474  )
        33           Ru  tau(  33) = (  -0.0007075   0.4483545   2.1690553  )
        34           Ru  tau(  34) = (   0.5000666   0.4477021   2.1914578  )
        35           O   tau(  35) = (   0.2423973   0.6204718   2.1800536  )
        36           O   tau(  36) = (   0.7549571   0.6187814   2.1828316  )
        37           O   tau(  37) = (   0.0004714   0.0065114   2.3582470  )
        38           O   tau(  38) = (   0.4991119  -0.0000351   2.3477017  )
        39           O   tau(  39) = (   0.0027843   0.3963648   2.4687546  )
        40           O   tau(  40) = (   0.4860980   0.4388922   2.4552733  )
        41           H   tau(  41) = (   0.1372538   0.4289572   0.8510311  )
        42           H   tau(  42) = (   0.1372538   0.4289572   2.5248864  )
        43           H   tau(  43) = (   0.0000943   0.1403373   0.9415160  )
        44           H   tau(  44) = (   0.0000943   0.1403373   2.4344016  )
        45           H   tau(  45) = (   0.4983611   0.8687264   0.8837756  )
        46           H   tau(  46) = (   0.4983611   0.8687264   2.4921419  )

     number of k points=     2  Marzari-Vanderbilt smearing, width (Ry)=  0.0300
                       cart. coord. in units 2pi/alat
        k(    1) = (   0.2500000   0.2763144   0.0000000), wk =   1.0000000
        k(    2) = (  -0.2500000   0.2763144   0.0000000), wk =   1.0000000

     Dense  grid:  1096679 G-vectors     FFT dimensions: (  90,  80, 300)

     Smooth grid:   277485 G-vectors     FFT dimensions: (  60,  54, 192)

     Estimated max dynamical RAM per process >     179.80 MB

     Estimated total dynamical RAM >       3.51 GB

     Check: negative core charge=   -0.000001

     Initial potential from superposition of free atoms

     starting charge     365.9933, renormalised to     366.0000

     add environment contribution to local potential
     Polarization accuracy = 2.3E-12, # of iterations =  26

     negative rho (up, down):  2.977E-05 0.000E+00
     Starting wfcs are  238 randomized atomic wfcs
     Checking if some PAW data can be deallocated... 

     total cpu time spent up to now is     1931.0 secs

     per-process dynamical memory:   149.7 Mb

     Self-consistent Calculation

     iteration #  1     ecut=    50.00 Ry     beta= 0.70
     Davidson diagonalization with overlap
     ethr =  1.00E-02,  avg # of iterations =  2.0

     negative rho (up, down):  1.912E-08 0.000E+00

     total cpu time spent up to now is     2667.7 secs

     total energy              =   -3432.76029033 Ry
     estimated scf accuracy    <       9.61422499 Ry
     electrostatic embedding   =      -0.00178151 Ry
     cavitation energy         =       0.01956847 Ry
     PV energy                 =      -0.08401839 Ry
     correction to one-el term =     221.49375886 Ry

     iteration #  2     ecut=    50.00 Ry     beta= 0.70
     Davidson diagonalization with overlap
     ethr =  2.63E-03,  avg # of iterations =  2.0

     total cpu time spent up to now is     3284.7 secs

     total energy              =   -3434.85946671 Ry
     estimated scf accuracy    <       2.19106383 Ry
     electrostatic embedding   =      -0.00272635 Ry
     cavitation energy         =       0.01948671 Ry
     PV energy                 =      -0.08458444 Ry
     correction to one-el term =     221.49660629 Ry

     iteration #  3     ecut=    50.00 Ry     beta= 0.70
     Davidson diagonalization with overlap
     ethr =  5.99E-04,  avg # of iterations =  1.0

     total cpu time spent up to now is     3884.8 secs

     total energy              =   -3435.05170895 Ry
     estimated scf accuracy    <       0.59229241 Ry
     electrostatic embedding   =      -0.00310128 Ry
     cavitation energy         =       0.01954206 Ry
     PV energy                 =      -0.08466464 Ry
     correction to one-el term =     221.49759786 Ry

     iteration #  4     ecut=    50.00 Ry     beta= 0.70
     Davidson diagonalization with overlap
     ethr =  1.62E-04,  avg # of iterations =  2.0

     total cpu time spent up to now is     4511.8 secs

     total energy              =   -3435.10529316 Ry
     estimated scf accuracy    <       0.53538070 Ry
     electrostatic embedding   =      -0.00318474 Ry
     cavitation energy         =       0.01971000 Ry
     PV energy                 =      -0.08418381 Ry
     correction to one-el term =     221.49750537 Ry

     iteration #  5     ecut=    50.00 Ry     beta= 0.70
     Davidson diagonalization with overlap
     ethr =  1.46E-04,  avg # of iterations =  1.0

     total cpu time spent up to now is     5196.6 secs

     total energy              =   -3435.09529900 Ry
     estimated scf accuracy    <       0.22032855 Ry
     electrostatic embedding   =      -0.00332245 Ry
     cavitation energy         =       0.01997632 Ry
     PV energy                 =      -0.08357976 Ry
     correction to one-el term =     221.49753688 Ry

     iteration #  6     ecut=    50.00 Ry     beta= 0.70
     Davidson diagonalization with overlap
     ethr =  6.02E-05,  avg # of iterations =  1.0

     total cpu time spent up to now is     5867.1 secs

     total energy              =   -3435.09360793 Ry
     estimated scf accuracy    <       0.11569054 Ry
     electrostatic embedding   =      -0.00337554 Ry
     cavitation energy         =       0.02058168 Ry
     PV energy                 =      -0.08222945 Ry
     correction to one-el term =     221.49705857 Ry

     iteration #  7     ecut=    50.00 Ry     beta= 0.70
     Davidson diagonalization with overlap
     ethr =  3.16E-05,  avg # of iterations =  1.0

     add environment contribution to local potential
     Polarization accuracy = 3.5E-12, # of iterations =  43

     total cpu time spent up to now is     6505.7 secs

     total energy              =   -3435.08839040 Ry
     estimated scf accuracy    <       0.07998946 Ry
     electrostatic embedding   =      -0.00330469 Ry
     cavitation energy         =       0.02081237 Ry
     PV energy                 =      -0.08165365 Ry
     correction to one-el term =     221.49662103 Ry

     iteration #  8     ecut=    50.00 Ry     beta= 0.70
     Davidson diagonalization with overlap
     ethr =  2.19E-05,  avg # of iterations =  2.0

     add environment contribution to local potential
     Polarization accuracy = 6.9E-12, # of iterations =  46

     total cpu time spent up to now is     7196.3 secs

     total energy              =   -3435.12201744 Ry
     estimated scf accuracy    <       0.07184197 Ry
     electrostatic embedding   =      -0.04433182 Ry
     cavitation energy         =       0.02137188 Ry
     PV energy                 =      -0.08039804 Ry
     correction to one-el term =     186.81297952 Ry

     iteration #  9     ecut=    50.00 Ry     beta= 0.70
     Davidson diagonalization with overlap
     ethr =  1.96E-05,  avg # of iterations =  1.0

     add environment contribution to local potential
     Polarization accuracy = 4.3E-12, # of iterations =  49

     total cpu time spent up to now is     7893.4 secs

     total energy              =   -3435.12137600 Ry
     estimated scf accuracy    <       0.02543234 Ry
     electrostatic embedding   =      -0.04735761 Ry
     cavitation energy         =       0.02151719 Ry
     PV energy                 =      -0.08004056 Ry
     correction to one-el term =     185.96166081 Ry

     iteration # 10     ecut=    50.00 Ry     beta= 0.70
     Davidson diagonalization with overlap
     ethr =  6.95E-06,  avg # of iterations = 11.0

     negative rho (up, down):  4.396E-04 0.000E+00

     add environment contribution to local potential
     Polarization accuracy = 4.3E-12, # of iterations =  49

     total cpu time spent up to now is     8602.5 secs

     total energy              =   -3435.12181213 Ry
     estimated scf accuracy    <       0.01186901 Ry
     electrostatic embedding   =      -0.05177328 Ry
     cavitation energy         =       0.02153988 Ry
     PV energy                 =      -0.07976965 Ry
     correction to one-el term =     185.54729959 Ry

     iteration # 11     ecut=    50.00 Ry     beta= 0.70
     Davidson diagonalization with overlap
     ethr =  3.24E-06,  avg # of iterations =  3.0

     negative rho (up, down):  1.036E-03 0.000E+00

     add environment contribution to local potential
     Polarization accuracy = 5.9E-12, # of iterations =  48

     total cpu time spent up to now is     9223.8 secs

     total energy              =   -3435.12417413 Ry
     estimated scf accuracy    <       0.00776091 Ry
     electrostatic embedding   =      -0.05800203 Ry
     cavitation energy         =       0.02138320 Ry
     PV energy                 =      -0.07966530 Ry
     correction to one-el term =     186.03483204 Ry

     iteration # 12     ecut=    50.00 Ry     beta= 0.70
     Davidson diagonalization with overlap
     ethr =  2.12E-06,  avg # of iterations =  2.0

     negative rho (up, down):  2.074E-03 0.000E+00

     add environment contribution to local potential
     Polarization accuracy = 5.3E-12, # of iterations =  48

     total cpu time spent up to now is     9792.7 secs

     total energy              =   -3435.12524860 Ry
     estimated scf accuracy    <       0.00565301 Ry
     electrostatic embedding   =      -0.06103582 Ry
     cavitation energy         =       0.02123040 Ry
     PV energy                 =      -0.07974489 Ry
     correction to one-el term =     186.91309836 Ry

     iteration # 13     ecut=    50.00 Ry     beta= 0.70
     Davidson diagonalization with overlap
     ethr =  1.54E-06,  avg # of iterations =  6.0

     negative rho (up, down):  2.136E-04 0.000E+00

     add environment contribution to local potential
     Polarization accuracy = 6.3E-12, # of iterations =  46

     total cpu time spent up to now is    10697.1 secs

     total energy              =   -3435.12592787 Ry
     estimated scf accuracy    <       0.00240465 Ry
     electrostatic embedding   =      -0.06440395 Ry
     cavitation energy         =       0.02115917 Ry
     PV energy                 =      -0.07976315 Ry
     correction to one-el term =     187.44988083 Ry

     iteration # 14     ecut=    50.00 Ry     beta= 0.70
     Davidson diagonalization with overlap
     ethr =  6.57E-07,  avg # of iterations =  6.0

     negative rho (up, down):  1.107E-08 0.000E+00

     add environment contribution to local potential
     Polarization accuracy = 7.0E-12, # of iterations =  46

     total cpu time spent up to now is    11568.8 secs

     total energy              =   -3435.12625907 Ry
     estimated scf accuracy    <       0.00167424 Ry
     electrostatic embedding   =      -0.06224335 Ry
     cavitation energy         =       0.02103445 Ry
     PV energy                 =      -0.07998102 Ry
     correction to one-el term =     188.58334692 Ry

     iteration # 15     ecut=    50.00 Ry     beta= 0.70
     Davidson diagonalization with overlap
     ethr =  4.57E-07,  avg # of iterations =  5.0

     negative rho (up, down):  9.484E-07 0.000E+00

     add environment contribution to local potential
     Polarization accuracy = 6.0E-12, # of iterations =  45

     total cpu time spent up to now is    12161.7 secs

     total energy              =   -3435.12655045 Ry
     estimated scf accuracy    <       0.00102435 Ry
     electrostatic embedding   =      -0.06088773 Ry
     cavitation energy         =       0.02101534 Ry
     PV energy                 =      -0.08006172 Ry
     correction to one-el term =     189.12140289 Ry

     iteration # 16     ecut=    50.00 Ry     beta= 0.70
     Davidson diagonalization with overlap
     ethr =  2.80E-07,  avg # of iterations =  7.0

     negative rho (up, down):  4.993E-04 0.000E+00

     add environment contribution to local potential
     Polarization accuracy = 8.6E-12, # of iterations =  44

     total cpu time spent up to now is    12848.8 secs

     total energy              =   -3435.12674204 Ry
     estimated scf accuracy    <       0.00043773 Ry
     electrostatic embedding   =      -0.05984153 Ry
     cavitation energy         =       0.02096099 Ry
     PV energy                 =      -0.08016520 Ry
     correction to one-el term =     190.05968980 Ry

     iteration # 17     ecut=    50.00 Ry     beta= 0.70
     Davidson diagonalization with overlap
     ethr =  1.20E-07,  avg # of iterations =  8.0

     negative rho (up, down):  1.317E-03 0.000E+00

     add environment contribution to local potential
     Polarization accuracy = 5.1E-12, # of iterations =  45

     total cpu time spent up to now is    13553.6 secs

     total energy              =   -3435.12685050 Ry
     estimated scf accuracy    <       0.00006090 Ry
     electrostatic embedding   =      -0.05766089 Ry
     cavitation energy         =       0.02093267 Ry
     PV energy                 =      -0.08025733 Ry
     correction to one-el term =     190.62459935 Ry

     iteration # 18     ecut=    50.00 Ry     beta= 0.70
     Davidson diagonalization with overlap
     ethr =  1.66E-08,  avg # of iterations =  5.0

     negative rho (up, down):  9.990E-04 0.000E+00

     add environment contribution to local potential
     Polarization accuracy = 4.3E-12, # of iterations =  45

     total cpu time spent up to now is    13927.7 secs

     total energy              =   -3435.12687356 Ry
     estimated scf accuracy    <       0.00004097 Ry
     electrostatic embedding   =      -0.05699100 Ry
     cavitation energy         =       0.02094670 Ry
     PV energy                 =      -0.08022850 Ry
     correction to one-el term =     190.74458844 Ry

     iteration # 19     ecut=    50.00 Ry     beta= 0.70
     Davidson diagonalization with overlap
     ethr =  1.12E-08,  avg # of iterations =  2.0

     negative rho (up, down):  1.363E-03 0.000E+00

     add environment contribution to local potential
     Polarization accuracy = 5.5E-12, # of iterations =  45

     total cpu time spent up to now is    14094.8 secs

     total energy              =   -3435.12688265 Ry
     estimated scf accuracy    <       0.00002318 Ry
     electrostatic embedding   =      -0.05686255 Ry
     cavitation energy         =       0.02094898 Ry
     PV energy                 =      -0.08021564 Ry
     correction to one-el term =     190.75109308 Ry

     iteration # 20     ecut=    50.00 Ry     beta= 0.70
     Davidson diagonalization with overlap
     ethr =  6.33E-09,  avg # of iterations =  3.0

     negative rho (up, down):  1.064E-03 0.000E+00

     add environment contribution to local potential
     Polarization accuracy = 6.1E-12, # of iterations =  45

     total cpu time spent up to now is    14245.6 secs

     total energy              =   -3435.12688837 Ry
     estimated scf accuracy    <       0.00001030 Ry
     electrostatic embedding   =      -0.05619770 Ry
     cavitation energy         =       0.02095629 Ry
     PV energy                 =      -0.08019910 Ry
     correction to one-el term =     190.84311208 Ry

     iteration # 21     ecut=    50.00 Ry     beta= 0.70
     Davidson diagonalization with overlap
     ethr =  2.81E-09,  avg # of iterations =  3.0

     negative rho (up, down):  1.336E-04 0.000E+00

     add environment contribution to local potential
     Polarization accuracy = 6.7E-12, # of iterations =  45

     total cpu time spent up to now is    14405.8 secs

     total energy              =   -3435.12688617 Ry
     estimated scf accuracy    <       0.00000496 Ry
     electrostatic embedding   =      -0.05582780 Ry
     cavitation energy         =       0.02095901 Ry
     PV energy                 =      -0.08018481 Ry
     correction to one-el term =     190.86648941 Ry

     iteration # 22     ecut=    50.00 Ry     beta= 0.70
     Davidson diagonalization with overlap
     ethr =  1.36E-09,  avg # of iterations =  6.0

     negative rho (up, down):  1.623E-04 0.000E+00

     add environment contribution to local potential
     Polarization accuracy = 7.2E-12, # of iterations =  45

     total cpu time spent up to now is    14547.4 secs

     total energy              =   -3435.12688716 Ry
     estimated scf accuracy    <       0.00000216 Ry
     electrostatic embedding   =      -0.05581119 Ry
     cavitation energy         =       0.02096191 Ry
     PV energy                 =      -0.08017751 Ry
     correction to one-el term =     190.79722958 Ry

     iteration # 23     ecut=    50.00 Ry     beta= 0.70
     Davidson diagonalization with overlap
     ethr =  5.90E-10,  avg # of iterations =  3.0

     negative rho (up, down):  1.050E-04 0.000E+00

     add environment contribution to local potential
     Polarization accuracy = 6.8E-12, # of iterations =  46

     total cpu time spent up to now is    14697.6 secs

     total energy              =   -3435.12688745 Ry
     estimated scf accuracy    <       0.00000214 Ry
     electrostatic embedding   =      -0.05566554 Ry
     cavitation energy         =       0.02096217 Ry
     PV energy                 =      -0.08017809 Ry
     correction to one-el term =     190.81186260 Ry

     iteration # 24     ecut=    50.00 Ry     beta= 0.70
     Davidson diagonalization with overlap
     ethr =  5.85E-10,  avg # of iterations =  3.0

     negative rho (up, down):  9.047E-05 0.000E+00

     add environment contribution to local potential
     Polarization accuracy = 7.3E-12, # of iterations =  45

     total cpu time spent up to now is    14858.3 secs

     total energy              =   -3435.12688732 Ry
     estimated scf accuracy    <       0.00000051 Ry
     electrostatic embedding   =      -0.05545616 Ry
     cavitation energy         =       0.02096307 Ry
     PV energy                 =      -0.08017653 Ry
     correction to one-el term =     190.82017222 Ry

     iteration # 25     ecut=    50.00 Ry     beta= 0.70
     Davidson diagonalization with overlap
     ethr =  1.40E-10,  avg # of iterations =  2.0

     negative rho (up, down):  9.631E-05 0.000E+00

     add environment contribution to local potential
     Polarization accuracy = 7.8E-12, # of iterations =  45

     total cpu time spent up to now is    15001.9 secs

     total energy              =   -3435.12688752 Ry
     estimated scf accuracy    <       0.00000043 Ry
     electrostatic embedding   =      -0.05543202 Ry
     cavitation energy         =       0.02096323 Ry
     PV energy                 =      -0.08017842 Ry
     correction to one-el term =     190.81810166 Ry

     iteration # 26     ecut=    50.00 Ry     beta= 0.70
     Davidson diagonalization with overlap
     ethr =  1.19E-10,  avg # of iterations =  3.0

     negative rho (up, down):  1.092E-04 0.000E+00

     add environment contribution to local potential
     Polarization accuracy = 7.3E-12, # of iterations =  46

     total cpu time spent up to now is    15161.4 secs

     total energy              =   -3435.12688760 Ry
     estimated scf accuracy    <       0.00000021 Ry
     electrostatic embedding   =      -0.05536471 Ry
     cavitation energy         =       0.02096362 Ry
     PV energy                 =      -0.08017992 Ry
     correction to one-el term =     190.82266100 Ry

     iteration # 27     ecut=    50.00 Ry     beta= 0.70
     Davidson diagonalization with overlap
     ethr =  5.67E-11,  avg # of iterations =  2.0

     negative rho (up, down):  1.183E-04 0.000E+00

     add environment contribution to local potential
     Polarization accuracy = 8.4E-12, # of iterations =  45

     total cpu time spent up to now is    15305.7 secs

     total energy              =   -3435.12688778 Ry
     estimated scf accuracy    <       0.00000011 Ry
     electrostatic embedding   =      -0.05538838 Ry
     cavitation energy         =       0.02096359 Ry
     PV energy                 =      -0.08017957 Ry
     correction to one-el term =     190.82388592 Ry

     iteration # 28     ecut=    50.00 Ry     beta= 0.70
     Davidson diagonalization with overlap
     ethr =  3.05E-11,  avg # of iterations =  2.0

     negative rho (up, down):  1.364E-04 0.000E+00

     add environment contribution to local potential
     Polarization accuracy = 6.7E-12, # of iterations =  46

     total cpu time spent up to now is    15467.3 secs

     total energy              =   -3435.12688791 Ry
     estimated scf accuracy    <       0.00000008 Ry
     electrostatic embedding   =      -0.05535729 Ry
     cavitation energy         =       0.02096375 Ry
     PV energy                 =      -0.08018015 Ry
     correction to one-el term =     190.82790783 Ry

     iteration # 29     ecut=    50.00 Ry     beta= 0.70
     Davidson diagonalization with overlap
     ethr =  2.07E-11,  avg # of iterations =  1.0

     negative rho (up, down):  1.367E-04 0.000E+00

     add environment contribution to local potential
     Polarization accuracy = 7.2E-12, # of iterations =  45

     total cpu time spent up to now is    15616.2 secs

     total energy              =   -3435.12688835 Ry
     estimated scf accuracy    <       0.00000007 Ry
     electrostatic embedding   =      -0.05535508 Ry
     cavitation energy         =       0.02096373 Ry
     PV energy                 =      -0.08018064 Ry
     correction to one-el term =     190.83129772 Ry

     iteration # 30     ecut=    50.00 Ry     beta= 0.70
     Davidson diagonalization with overlap
     ethr =  1.92E-11,  avg # of iterations =  2.0

     negative rho (up, down):  1.502E-04 0.000E+00

     add environment contribution to local potential
     Polarization accuracy = 7.2E-12, # of iterations =  45

     total cpu time spent up to now is    15760.4 secs

     total energy              =   -3435.12688849 Ry
     estimated scf accuracy    <       0.00000007 Ry
     electrostatic embedding   =      -0.05535132 Ry
     cavitation energy         =       0.02096372 Ry
     PV energy                 =      -0.08018051 Ry
     correction to one-el term =     190.83190433 Ry

     iteration # 31     ecut=    50.00 Ry     beta= 0.70
     Davidson diagonalization with overlap
     ethr =  1.85E-11,  avg # of iterations =  1.0

     negative rho (up, down):  1.580E-04 0.000E+00

     add environment contribution to local potential
     Polarization accuracy = 8.3E-12, # of iterations =  45

     total cpu time spent up to now is    15918.0 secs

     total energy              =   -3435.12688905 Ry
     estimated scf accuracy    <       0.00000006 Ry
     electrostatic embedding   =      -0.05535258 Ry
     cavitation energy         =       0.02096364 Ry
     PV energy                 =      -0.08018043 Ry
     correction to one-el term =     190.83413362 Ry

     iteration # 32     ecut=    50.00 Ry     beta= 0.70
     Davidson diagonalization with overlap
     ethr =  1.62E-11,  avg # of iterations =  1.0

     negative rho (up, down):  1.554E-04 0.000E+00

     add environment contribution to local potential
     Polarization accuracy = 6.3E-12, # of iterations =  46

     total cpu time spent up to now is    16070.7 secs

     total energy              =   -3435.12688975 Ry
     estimated scf accuracy    <       0.00000005 Ry
     electrostatic embedding   =      -0.05535151 Ry
     cavitation energy         =       0.02096356 Ry
     PV energy                 =      -0.08018029 Ry
     correction to one-el term =     190.83531219 Ry

     iteration # 33     ecut=    50.00 Ry     beta= 0.70
     Davidson diagonalization with overlap
     ethr =  1.50E-11,  avg # of iterations =  2.0

     negative rho (up, down):  1.525E-04 0.000E+00

     add environment contribution to local potential
     Polarization accuracy = 6.6E-12, # of iterations =  45

     total cpu time spent up to now is    16218.6 secs

     total energy              =   -3435.12689217 Ry
     estimated scf accuracy    <       0.00000005 Ry
     electrostatic embedding   =      -0.05535065 Ry
     cavitation energy         =       0.02096342 Ry
     PV energy                 =      -0.08017999 Ry
     correction to one-el term =     190.83385832 Ry

     iteration # 34     ecut=    50.00 Ry     beta= 0.70
     Davidson diagonalization with overlap
     ethr =  1.32E-11,  avg # of iterations =  2.0

     negative rho (up, down):  1.455E-04 0.000E+00

     add environment contribution to local potential
     Polarization accuracy = 5.3E-12, # of iterations =  46

     total cpu time spent up to now is    16367.4 secs

     total energy              =   -3435.12689181 Ry
     estimated scf accuracy    <       0.00000005 Ry
     electrostatic embedding   =      -0.05535451 Ry
     cavitation energy         =       0.02096349 Ry
     PV energy                 =      -0.08018013 Ry
     correction to one-el term =     190.83344421 Ry

     iteration # 35     ecut=    50.00 Ry     beta= 0.70
     Davidson diagonalization with overlap
     ethr =  1.25E-11,  avg # of iterations =  5.0

     negative rho (up, down):  1.371E-04 0.000E+00

     add environment contribution to local potential
     Polarization accuracy = 7.7E-12, # of iterations =  45

     total cpu time spent up to now is    16522.7 secs

     total energy              =   -3435.12689674 Ry
     estimated scf accuracy    <       0.00000004 Ry
     electrostatic embedding   =      -0.05535434 Ry
     cavitation energy         =       0.02096345 Ry
     PV energy                 =      -0.08018006 Ry
     correction to one-el term =     190.83119585 Ry

     iteration # 36     ecut=    50.00 Ry     beta= 0.70
     Davidson diagonalization with overlap
     ethr =  1.10E-11,  avg # of iterations =  2.0

     negative rho (up, down):  1.351E-04 0.000E+00

     add environment contribution to local potential
     Polarization accuracy = 5.1E-12, # of iterations =  45

     total cpu time spent up to now is    16672.8 secs

     total energy              =   -3435.12690051 Ry
     estimated scf accuracy    <       0.00000002 Ry
     electrostatic embedding   =      -0.05536341 Ry
     cavitation energy         =       0.02096354 Ry
     PV energy                 =      -0.08018022 Ry
     correction to one-el term =     190.82931150 Ry

     iteration # 37     ecut=    50.00 Ry     beta= 0.70
     Davidson diagonalization with overlap
     ethr =  5.41E-12,  avg # of iterations =  6.0

     negative rho (up, down):  1.368E-04 0.000E+00

     add environment contribution to local potential
     Polarization accuracy = 4.7E-12, # of iterations =  46

     total cpu time spent up to now is    16823.1 secs

     total energy              =   -3435.12690776 Ry
     estimated scf accuracy    <       0.00000001 Ry
     electrostatic embedding   =      -0.05536983 Ry
     cavitation energy         =       0.02096371 Ry
     PV energy                 =      -0.08018064 Ry
     correction to one-el term =     190.82948380 Ry

     iteration # 38     ecut=    50.00 Ry     beta= 0.70
     Davidson diagonalization with overlap
     ethr =  2.78E-12,  avg # of iterations =  2.0

     negative rho (up, down):  1.379E-04 0.000E+00

     add environment contribution to local potential
     Polarization accuracy = 3.9E-12, # of iterations =  46

     total cpu time spent up to now is    16976.0 secs

     total energy              =   -3435.12691001 Ry
     estimated scf accuracy    <          3.1E-09 Ry
     electrostatic embedding   =      -0.05537058 Ry
     cavitation energy         =       0.02096367 Ry
     PV energy                 =      -0.08018045 Ry
     correction to one-el term =     190.82974228 Ry

     iteration # 39     ecut=    50.00 Ry     beta= 0.70
     Davidson diagonalization with overlap
     ethr =  8.34E-13,  avg # of iterations =  2.0

     negative rho (up, down):  1.412E-04 0.000E+00

     add environment contribution to local potential
     Polarization accuracy = 6.5E-12, # of iterations =  45

     total cpu time spent up to now is    17119.6 secs

     total energy              =   -3435.12691033 Ry
     estimated scf accuracy    <          1.9E-09 Ry
     electrostatic embedding   =      -0.05536854 Ry
     cavitation energy         =       0.02096363 Ry
     PV energy                 =      -0.08018036 Ry
     correction to one-el term =     190.83002742 Ry

     iteration # 40     ecut=    50.00 Ry     beta= 0.70
     Davidson diagonalization with overlap
     ethr =  5.11E-13,  avg # of iterations =  5.0

     negative rho (up, down):  1.427E-04 0.000E+00

     add environment contribution to local potential
     Polarization accuracy = 5.6E-12, # of iterations =  45

     total cpu time spent up to now is    17270.4 secs

     total energy              =   -3435.12691122 Ry
     estimated scf accuracy    <          1.2E-09 Ry
     electrostatic embedding   =      -0.05536703 Ry
     cavitation energy         =       0.02096363 Ry
     PV energy                 =      -0.08018032 Ry
     correction to one-el term =     190.83098843 Ry

     iteration # 41     ecut=    50.00 Ry     beta= 0.70
     Davidson diagonalization with overlap
     ethr =  3.40E-13,  avg # of iterations =  2.0

     negative rho (up, down):  1.417E-04 0.000E+00

     the potential shift due to the Gaussian-smeared nuclei is    -1.3466 ev

     total cpu time spent up to now is    17419.4 secs

     End of self-consistent calculation

          k = 0.2500 0.2763 0.0000 ( 34692 PWs)   bands (ev):

   -78.0481 -78.0353 -77.3747 -77.3625 -77.3310 -77.3268 -77.3187 -77.3143
   -77.2792 -77.2303 -77.2200 -77.1984 -48.5222 -48.5095 -47.9924 -47.9795
   -47.7915 -47.7793 -47.7324 -47.7202 -47.6588 -47.6461 -47.6287 -47.6217
   -47.4865 -47.4739 -47.4289 -47.4171 -47.4046 -47.3639 -47.3315 -47.2871
   -47.2736 -47.2677 -47.2158 -47.2037 -47.1574 -47.1520 -47.1452 -47.1302
   -47.1152 -47.1032 -47.1027 -47.0910 -47.0680 -47.0409 -47.0070 -46.9946
   -24.0502 -23.9480 -23.7757 -23.5762 -23.5531 -23.4450 -23.4054 -23.3175
   -23.2264 -23.2108 -22.8903 -22.7943 -22.7320 -22.7219 -22.6873 -22.6586
   -22.6205 -22.5059 -22.4856 -22.4645 -22.4359 -22.3492 -22.3334 -22.2865
   -22.2362 -22.0481 -21.6665 -21.5410 -12.2353 -12.1308 -12.0878 -12.0359
   -11.9297 -11.6100 -11.5748 -11.4159 -11.3614 -11.3507 -11.2133 -11.1108
   -11.0664 -11.0274 -11.0066 -10.9972 -10.8955 -10.8922 -10.7499 -10.6502
   -10.5511 -10.5118 -10.3483 -10.3134 -10.2558 -10.1711 -10.0506  -9.9353
    -9.8214  -9.7905  -9.7231  -9.4995  -9.4135  -9.3203  -9.3122  -9.2830
    -9.1580  -9.1440  -9.0871  -8.9857  -8.9398  -8.8883  -8.7886  -8.6919
    -8.6097  -8.5591  -8.5131  -8.3288  -8.1946  -8.0947  -8.0755  -8.0249
    -8.0179  -8.0051  -7.9916  -7.9337  -7.8894  -7.7940  -7.7313  -7.6583
    -7.6364  -7.5770  -7.5171  -7.3707  -7.3593  -7.2798  -7.2697  -7.0642
    -7.0160  -6.9367  -6.8544  -6.8172  -6.7640  -6.6859  -6.5834  -6.5676
    -6.4841  -6.4363  -6.3385  -6.2477  -6.2298  -6.0660  -6.0363  -5.9947
    -5.0267  -4.9644  -4.7980  -4.7653  -4.7248  -4.7088  -4.6360  -4.6295
    -4.6092  -4.5940  -4.5645  -4.4663  -4.4329  -4.3995  -4.3908  -4.2829
    -4.2442  -4.2144  -4.2027  -4.1351  -4.0258  -3.9871  -3.8099  -3.7883
    -3.6527  -3.6415  -3.5347  -3.4169  -3.1631  -3.0875  -3.0822  -2.9521
    -2.8550  -2.8192  -2.6399  -2.5549  -1.9315  -1.8262  -1.8025  -1.6957
    -1.5085  -1.4842  -1.0512  -0.5543  -0.4666  -0.2324  -0.1918  -0.1039
     0.0636   0.1141   0.1229   0.2763   0.3921   0.5700   0.5749   0.9147
     0.9217   1.0062   1.0482   1.2213

          k =-0.2500 0.2763 0.0000 ( 34692 PWs)   bands (ev):

   -78.0481 -78.0353 -77.3747 -77.3625 -77.3310 -77.3268 -77.3187 -77.3143
   -77.2792 -77.2303 -77.2200 -77.1984 -48.5222 -48.5095 -47.9924 -47.9796
   -47.7914 -47.7792 -47.7325 -47.7202 -47.6588 -47.6460 -47.6287 -47.6217
   -47.4865 -47.4739 -47.4289 -47.4172 -47.4047 -47.3640 -47.3315 -47.2869
   -47.2735 -47.2677 -47.2160 -47.2039 -47.1574 -47.1520 -47.1451 -47.1302
   -47.1153 -47.1031 -47.1028 -47.0908 -47.0680 -47.0409 -47.0070 -46.9946
   -24.0509 -23.9493 -23.7764 -23.5753 -23.5520 -23.4412 -23.4001 -23.3135
   -23.2332 -23.2168 -22.8889 -22.7954 -22.7326 -22.7238 -22.6850 -22.6630
   -22.6224 -22.5010 -22.4809 -22.4658 -22.4380 -22.3488 -22.3348 -22.2862
   -22.2372 -22.0457 -21.6666 -21.5415 -12.2343 -12.1259 -12.0809 -12.0368
   -11.9275 -11.5946 -11.5612 -11.4319 -11.3857 -11.3676 -11.2286 -11.1123
   -11.0972 -11.0595 -11.0210 -10.9856 -10.9110 -10.7771 -10.7418 -10.6881
   -10.5482 -10.4761 -10.3727 -10.3141 -10.2588 -10.1390 -10.0083  -9.9527
    -9.8944  -9.7892  -9.6381  -9.5334  -9.4159  -9.3356  -9.3071  -9.2781
    -9.1573  -9.1249  -9.0735  -9.0288  -8.9547  -8.8953  -8.7837  -8.6636
    -8.6132  -8.5464  -8.4546  -8.4192  -8.2004  -8.1025  -8.0816  -8.0373
    -8.0324  -8.0192  -7.9405  -7.9214  -7.8867  -7.7668  -7.7289  -7.6762
    -7.6160  -7.5856  -7.4972  -7.4520  -7.3947  -7.2216  -7.2161  -7.0618
    -7.0580  -6.9276  -6.8854  -6.8271  -6.7412  -6.7001  -6.5914  -6.5333
    -6.4828  -6.4309  -6.3505  -6.2601  -6.2258  -6.1006  -6.0093  -5.9696
    -5.0440  -4.9600  -4.7789  -4.7564  -4.7553  -4.6955  -4.6484  -4.6365
    -4.6014  -4.5738  -4.5184  -4.4596  -4.4454  -4.4072  -4.4022  -4.3038
    -4.2487  -4.2323  -4.1600  -4.1452  -4.0252  -4.0037  -3.8314  -3.7889
    -3.6686  -3.6163  -3.5261  -3.4217  -3.1583  -3.0953  -3.0857  -2.9480
    -2.8543  -2.8198  -2.6335  -2.5599  -1.9296  -1.8193  -1.8001  -1.6977
    -1.5100  -1.4853  -1.0468  -0.5593  -0.4678  -0.2328  -0.1879  -0.1053
     0.0725   0.1058   0.1215   0.2712   0.3951   0.5689   0.5782   0.9219
     0.9234   0.9928   1.0444   1.2206

     the Fermi energy is    -3.8528 ev

!    total energy              =   -3435.12691134 Ry
     estimated scf accuracy    <          6.1E-10 Ry
     smearing contrib. (-TS)   =       0.06279103 Ry
     internal energy E=F+TS    =   -3435.18970237 Ry

     The total energy is F=E-TS. E is the sum of the following terms:
     one-electron contribution =  -25748.22285010 Ry
     hartree contribution      =   12858.85084764 Ry
     xc contribution           =    -448.28506954 Ry
     ewald contribution        =    9978.26456760 Ry
     one-center paw contrib.   =    -266.51403241 Ry
     electrostatic embedding   =      -0.05536494 Ry
     cavitation energy         =       0.02096361 Ry
     PV energy                 =      -0.08018027 Ry
     correction to one-el term =     190.83141605 Ry

     WARNING: you are using the parabolic pbc correction;
              the potential shift above must be added to 
              band and Fermi energies.

     convergence has been achieved in  41 iterations

     negative rho (up, down):  1.417E-04 0.000E+00

     Forces acting on atoms (cartesian axes, Ry/au):

     atom    1 type  1   force =    -0.00058028    0.00054896    0.00068870
     atom    2 type  1   force =     0.00001195    0.00020838   -0.00115704
     atom    3 type  1   force =    -0.00060623   -0.00047684   -0.00010375
     atom    4 type  1   force =     0.00001128   -0.00025726    0.00018240
     atom    5 type  2   force =    -0.00005521   -0.00014150   -0.00028438
     atom    6 type  2   force =    -0.00023078   -0.00017218   -0.00022518
     atom    7 type  1   force =     0.00079182   -0.00014377   -0.00003644
     atom    8 type  1   force =    -0.00042456   -0.00027070   -0.00018246
     atom    9 type  2   force =     0.00002996   -0.00037381    0.00023304
     atom   10 type  2   force =    -0.00021036    0.00003545   -0.00018900
     atom   11 type  1   force =     0.00009011   -0.00010518    0.00046815
     atom   12 type  1   force =     0.00007882   -0.00010486   -0.00005051
     atom   13 type  1   force =     0.00033392   -0.00037990   -0.00049147
     atom   14 type  1   force =    -0.00041473   -0.00014472   -0.00003374
     atom   15 type  1   force =     0.00045622    0.00004637    0.00009162
     atom   16 type  1   force =    -0.00079741    0.00022542   -0.00004218
     atom   17 type  2   force =     0.00018267    0.00032572    0.00000000
     atom   18 type  2   force =     0.00001151   -0.00002016    0.00000000
     atom   19 type  1   force =     0.00008791    0.00010752    0.00000000
     atom   20 type  1   force =    -0.00000149    0.00041970    0.00000000
     atom   21 type  2   force =    -0.00052089    0.00015105    0.00000000
     atom   22 type  2   force =     0.00056482    0.00042288    0.00000000
     atom   23 type  1   force =    -0.00039177    0.00018812    0.00000000
     atom   24 type  1   force =     0.00051051    0.00030730    0.00000000
     atom   25 type  1   force =     0.00045622    0.00004637   -0.00009162
     atom   26 type  1   force =    -0.00079741    0.00022542    0.00004218
     atom   27 type  1   force =     0.00033392   -0.00037990    0.00049147
     atom   28 type  1   force =    -0.00041473   -0.00014472    0.00003374
     atom   29 type  2   force =    -0.00005521   -0.00014150    0.00028438
     atom   30 type  2   force =    -0.00023078   -0.00017218    0.00022518
     atom   31 type  1   force =     0.00079182   -0.00014377    0.00003644
     atom   32 type  1   force =    -0.00042456   -0.00027070    0.00018246
     atom   33 type  2   force =     0.00002996   -0.00037381   -0.00023304
     atom   34 type  2   force =    -0.00021036    0.00003545    0.00018900
     atom   35 type  1   force =     0.00009011   -0.00010518   -0.00046815
     atom   36 type  1   force =     0.00007882   -0.00010486    0.00005051
     atom   37 type  1   force =    -0.00060623   -0.00047684    0.00010375
     atom   38 type  1   force =     0.00001128   -0.00025726   -0.00018240
     atom   39 type  1   force =    -0.00058028    0.00054896   -0.00068870
     atom   40 type  1   force =     0.00001195    0.00020838    0.00115704
     atom   41 type  3   force =     0.00066697    0.00011928    0.00000992
     atom   42 type  3   force =     0.00066697    0.00011928   -0.00000992
     atom   43 type  3   force =     0.00027689   -0.00028188   -0.00048024
     atom   44 type  3   force =     0.00027689   -0.00028188    0.00048024
     atom   45 type  3   force =     0.00034997    0.00071767   -0.00047604
     atom   46 type  3   force =     0.00034997    0.00071767    0.00047604
     The non-local contrib.  to forces
     atom    1 type  1   force =     1.70029763    0.35170695    0.29235898
     atom    2 type  1   force =     0.02026532    0.04992947    1.23128587
     atom    3 type  1   force =     0.00094371    1.35126979    0.16920545
     atom    4 type  1   force =    -0.01345381   -0.50362116   -0.90303661
     atom    5 type  2   force =    -0.01288096    0.00490712    0.03576879
     atom    6 type  2   force =     0.01200678    0.00512610    0.03587345
     atom    7 type  1   force =     0.04288293   -0.08130555   -0.19507513
     atom    8 type  1   force =    -0.06944746   -0.07546602   -0.12553164
     atom    9 type  2   force =     0.00516591    0.00928045    0.03496298
     atom   10 type  2   force =    -0.00198737    0.00658921   -0.02411188
     atom   11 type  1   force =     0.00462919    0.07511231    0.05429425
     atom   12 type  1   force =    -0.02580239    0.05522490    0.09712599
     atom   13 type  1   force =     0.01179648    0.00143503   -0.00770298
     atom   14 type  1   force =     0.01497394    0.06436125    0.03175076
     atom   15 type  1   force =     0.04000008   -0.04182910   -0.03939093
     atom   16 type  1   force =     0.04763686   -0.01626156    0.20083960
     atom   17 type  2   force =     0.03045132    0.00288047    0.00000000
     atom   18 type  2   force =     0.03334079    0.00333182    0.00000000
     atom   19 type  1   force =    -0.00774250    0.10461443    0.00000000
     atom   20 type  1   force =    -0.04344147    0.09759967    0.00000000
     atom   21 type  2   force =    -0.00409463    0.00181909    0.00000000
     atom   22 type  2   force =     0.00505422    0.00000563    0.00000000
     atom   23 type  1   force =    -0.02128501   -0.10603023    0.00000000
     atom   24 type  1   force =    -0.03235648   -0.09945303    0.00000000
     atom   25 type  1   force =     0.04000008   -0.04182910    0.03939093
     atom   26 type  1   force =     0.04763686   -0.01626156   -0.20083960
     atom   27 type  1   force =     0.01179648    0.00143503    0.00770298
     atom   28 type  1   force =     0.01497394    0.06436125   -0.03175076
     atom   29 type  2   force =    -0.01288096    0.00490712   -0.03576879
     atom   30 type  2   force =     0.01200678    0.00512610   -0.03587345
     atom   31 type  1   force =     0.04288293   -0.08130555    0.19507513
     atom   32 type  1   force =    -0.06944746   -0.07546602    0.12553164
     atom   33 type  2   force =     0.00516591    0.00928045   -0.03496298
     atom   34 type  2   force =    -0.00198737    0.00658921    0.02411188
     atom   35 type  1   force =     0.00462919    0.07511231   -0.05429425
     atom   36 type  1   force =    -0.02580239    0.05522490   -0.09712599
     atom   37 type  1   force =     0.00094371    1.35126979   -0.16920545
     atom   38 type  1   force =    -0.01345381   -0.50362116    0.90303661
     atom   39 type  1   force =     1.70029763    0.35170695   -0.29235898
     atom   40 type  1   force =     0.02026532    0.04992947   -1.23128587
     atom   41 type  3   force =    -0.09543527   -0.02351906    0.04260124
     atom   42 type  3   force =    -0.09543527   -0.02351906   -0.04260124
     atom   43 type  3   force =     0.00057653   -0.07885215    0.04696701
     atom   44 type  3   force =     0.00057653   -0.07885215   -0.04696701
     atom   45 type  3   force =     0.00051772    0.02636545    0.10887409
     atom   46 type  3   force =     0.00051772    0.02636545   -0.10887409
     The ionic contribution  to forces
     atom    1 type  1   force =    -3.21700091   -0.17227192  -96.15227532
     atom    2 type  1   force =     0.12466351   -0.10569580 -101.69413965
     atom    3 type  1   force =    -0.16705253   -3.60431776  -93.19549355
     atom    4 type  1   force =     0.17644303    0.50140945  -91.24842106
     atom    5 type  2   force =     0.43681890   -1.15353969 -171.38494056
     atom    6 type  2   force =    -0.27250219   -1.26081977 -171.93370369
     atom    7 type  1   force =     0.64348368    0.18088604  -60.11756613
     atom    8 type  1   force =    -0.53572160    0.12104766  -62.04763984
     atom    9 type  2   force =    -0.61674787    2.07596265 -171.44313544
     atom   10 type  2   force =     0.74924786    1.25515370 -175.62336684
     atom   11 type  1   force =     0.49371015    0.16058066  -66.68303940
     atom   12 type  1   force =    -0.37110768    0.29447581  -67.52931204
     atom   13 type  1   force =    -0.11162191   -0.41962679  -38.67929666
     atom   14 type  1   force =    -0.01397027   -0.55432843  -38.73916678
     atom   15 type  1   force =    -0.34351212    0.31038756  -25.46792016
     atom   16 type  1   force =    -0.12005117    0.31172348  -27.49290892
     atom   17 type  2   force =     0.46017399    0.37041595   -0.00044683
     atom   18 type  2   force =     0.37045948    0.69310261   -0.00044957
     atom   19 type  1   force =     0.13728302    0.63906191   -0.00008516
     atom   20 type  1   force =    -0.09993846    0.77643479   -0.00008345
     atom   21 type  2   force =     1.54264283   -0.04615550   -0.00025033
     atom   22 type  2   force =    -1.53521978   -0.13827188   -0.00024594
     atom   23 type  1   force =     0.16264258   -0.69574862   -0.00008326
     atom   24 type  1   force =    -0.14980340   -0.77150190   -0.00008243
     atom   25 type  1   force =    -0.34352068    0.31038808   25.46769943
     atom   26 type  1   force =    -0.12005887    0.31172460   27.49273200
     atom   27 type  1   force =    -0.11162381   -0.41963327   38.67959354
     atom   28 type  1   force =    -0.01397174   -0.55433971   38.73947408
     atom   29 type  2   force =     0.43682951   -1.15353744  171.38521199
     atom   30 type  2   force =    -0.27251151   -1.26081679  171.93397356
     atom   31 type  1   force =     0.64348827    0.18085738   60.11763268
     atom   32 type  1   force =    -0.53572492    0.12102181   62.04770856
     atom   33 type  2   force =    -0.61676087    2.07597097  171.44326214
     atom   34 type  2   force =     0.74925342    1.25515071  175.62351137
     atom   35 type  1   force =     0.49371059    0.16061022   66.68309994
     atom   36 type  1   force =    -0.37110700    0.29450142   67.52937594
     atom   37 type  1   force =    -0.16705329   -3.60452703   93.19560524
     atom   38 type  1   force =     0.17644615    0.50151483   91.24823680
     atom   39 type  1   force =    -3.21708143   -0.17228372   96.15239209
     atom   40 type  1   force =     0.12466630   -0.10569325  101.69420733
     atom   41 type  3   force =     2.74994517    0.81514766  -16.57829635
     atom   42 type  3   force =     2.75002627    0.81516689   16.57831007
     atom   43 type  3   force =    -0.06695842    1.59470491  -16.97314663
     atom   44 type  3   force =    -0.06695863    1.59489639   16.97313140
     atom   45 type  3   force =     0.01782430   -0.76453817  -18.47207214
     atom   46 type  3   force =     0.01782205   -0.76465069   18.47240998
     The local contribution  to forces
     atom    1 type  1   force =     1.44465971   -0.14522765   95.82417978
     atom    2 type  1   force =    -0.08156866    0.03864773  100.42029887
     atom    3 type  1   force =     0.14588132    2.24137498   93.00696667
     atom    4 type  1   force =    -0.14678353    0.02077094   92.24324559
     atom    5 type  2   force =    -0.46148235    1.14765103  171.39115884
     atom    6 type  2   force =     0.29883999    1.25294548  171.90732258
     atom    7 type  1   force =    -0.69066507   -0.09287735   60.31545855
     atom    8 type  1   force =     0.61002330   -0.03433006   62.15703294
     atom    9 type  2   force =     0.57883843   -2.07513508  171.36474887
     atom   10 type  2   force =    -0.71187652   -1.27008390  175.62766322
     atom   11 type  1   force =    -0.51113500   -0.24346382   66.63501019
     atom   12 type  1   force =     0.41016172   -0.36270723   67.41264180
     atom   13 type  1   force =     0.09752318    0.41688749   38.68436137
     atom   14 type  1   force =     0.00147010    0.49094473   38.71433468
     atom   15 type  1   force =     0.30261821   -0.26874598   25.50368829
     atom   16 type  1   force =     0.07395279   -0.29561150   27.29363025
     atom   17 type  2   force =    -0.49286859   -0.37323830   -0.00585850
     atom   18 type  2   force =    -0.40136103   -0.69624597   -0.00585858
     atom   19 type  1   force =    -0.13056592   -0.74235745   -0.00246334
     atom   20 type  1   force =     0.14387193   -0.87235563   -0.00246789
     atom   21 type  2   force =    -1.54169436    0.04449603   -0.00605530
     atom   22 type  2   force =     1.53342372    0.13872538   -0.00606364
     atom   23 type  1   force =    -0.14313338    0.80072371   -0.00246836
     atom   24 type  1   force =     0.18340089    0.86997472   -0.00247013
     atom   25 type  1   force =     0.30261497   -0.26875472  -25.50546327
     atom   26 type  1   force =     0.07394821   -0.29562518  -27.29541931
     atom   27 type  1   force =     0.09752146    0.41688776  -38.68615067
     atom   28 type  1   force =     0.00147151    0.49093828  -38.71610867
     atom   29 type  2   force =    -0.46147236    1.14763770 -171.39725284
     atom   30 type  2   force =     0.29883427    1.25293967 -171.91341398
     atom   31 type  1   force =    -0.69065110   -0.09285495  -60.31790731
     atom   32 type  1   force =     0.61000732   -0.03430691  -62.15950085
     atom   33 type  2   force =     0.57884715   -2.07519381 -171.37063965
     atom   34 type  2   force =    -0.71189953   -1.27008767 -175.63341769
     atom   35 type  1   force =    -0.51110345   -0.24349591  -66.63748302
     atom   36 type  1   force =     0.41013050   -0.36273555  -67.41512161
     atom   37 type  1   force =     0.14588244    2.24149418  -93.01077845
     atom   38 type  1   force =    -0.14678498    0.02073299  -92.24698379
     atom   39 type  1   force =     1.44469417   -0.14525791  -95.82577454
     atom   40 type  1   force =    -0.08159997    0.03862894 -100.42168902
     atom   41 type  3   force =    -2.67040118   -0.79153904   16.54470075
     atom   42 type  3   force =    -2.67040118   -0.79153904  -16.54470075
     atom   43 type  3   force =     0.06064556   -1.51490701   16.92536039
     atom   44 type  3   force =     0.06064556   -1.51490701  -16.92536039
     atom   45 type  3   force =    -0.01391012    0.74647006   18.41562325
     atom   46 type  3   force =    -0.01391012    0.74647006  -18.41562325
     The core correction contribution to forces
     atom    1 type  1   force =    -0.01706038   -0.00363126   -0.00346849
     atom    2 type  1   force =    -0.00008378   -0.00041844   -0.01042386
     atom    3 type  1   force =    -0.00001404   -0.01310928   -0.00241697
     atom    4 type  1   force =     0.00012974    0.00506126    0.00867829
     atom    5 type  2   force =     0.00000000    0.00000000    0.00000000
     atom    6 type  2   force =     0.00000000    0.00000000    0.00000000
     atom    7 type  1   force =    -0.00071242    0.00000315    0.00193992
     atom    8 type  1   force =     0.00097521    0.00003117    0.00129024
     atom    9 type  2   force =     0.00000000    0.00000000    0.00000000
     atom   10 type  2   force =     0.00000000    0.00000000    0.00000000
     atom   11 type  1   force =    -0.00033095    0.00013939   -0.00045551
     atom   12 type  1   force =     0.00055791    0.00020629   -0.00090772
     atom   13 type  1   force =    -0.00013396    0.00004968    0.00002725
     atom   14 type  1   force =    -0.00014828   -0.00070448   -0.00031702
     atom   15 type  1   force =    -0.00039059    0.00048390    0.00031564
     atom   16 type  1   force =    -0.00049288    0.00011434   -0.00263923
     atom   17 type  2   force =     0.00000000    0.00000000    0.00000000
     atom   18 type  2   force =     0.00000000    0.00000000    0.00000000
     atom   19 type  1   force =     0.00013588   -0.00054889   -0.00000205
     atom   20 type  1   force =     0.00048047   -0.00051479   -0.00000204
     atom   21 type  2   force =     0.00000000    0.00000000    0.00000000
     atom   22 type  2   force =     0.00000000    0.00000000    0.00000000
     atom   23 type  1   force =     0.00027037    0.00058285   -0.00000196
     atom   24 type  1   force =     0.00039030    0.00052851   -0.00000197
     atom   25 type  1   force =    -0.00039058    0.00048409   -0.00031793
     atom   26 type  1   force =    -0.00049280    0.00011433    0.00263717
     atom   27 type  1   force =    -0.00013396    0.00004962   -0.00002945
     atom   28 type  1   force =    -0.00014828   -0.00070464    0.00031482
     atom   29 type  2   force =     0.00000000    0.00000000    0.00000000
     atom   30 type  2   force =     0.00000000    0.00000000    0.00000000
     atom   31 type  1   force =    -0.00071242    0.00000317   -0.00194173
     atom   32 type  1   force =     0.00097517    0.00003128   -0.00129213
     atom   33 type  2   force =     0.00000000    0.00000000    0.00000000
     atom   34 type  2   force =     0.00000000    0.00000000    0.00000000
     atom   35 type  1   force =    -0.00033084    0.00013929    0.00045350
     atom   36 type  1   force =     0.00055782    0.00020614    0.00090576
     atom   37 type  1   force =    -0.00001398   -0.01311113    0.00241329
     atom   38 type  1   force =     0.00012974    0.00506211   -0.00868396
     atom   39 type  1   force =    -0.01706117   -0.00363129    0.00346602
     atom   40 type  1   force =    -0.00008393   -0.00041846    0.01042207
     atom   41 type  3   force =     0.00000000    0.00000000    0.00000000
     atom   42 type  3   force =     0.00000000    0.00000000    0.00000000
     atom   43 type  3   force =     0.00000000    0.00000000    0.00000000
     atom   44 type  3   force =     0.00000000    0.00000000    0.00000000
     atom   45 type  3   force =     0.00000000    0.00000000    0.00000000
     atom   46 type  3   force =     0.00000000    0.00000000    0.00000000
     The Hubbard contrib.    to forces
     atom    1 type  1   force =     0.00000000    0.00000000    0.00000000
     atom    2 type  1   force =     0.00000000    0.00000000    0.00000000
     atom    3 type  1   force =     0.00000000    0.00000000    0.00000000
     atom    4 type  1   force =     0.00000000    0.00000000    0.00000000
     atom    5 type  2   force =     0.00000000    0.00000000    0.00000000
     atom    6 type  2   force =     0.00000000    0.00000000    0.00000000
     atom    7 type  1   force =     0.00000000    0.00000000    0.00000000
     atom    8 type  1   force =     0.00000000    0.00000000    0.00000000
     atom    9 type  2   force =     0.00000000    0.00000000    0.00000000
     atom   10 type  2   force =     0.00000000    0.00000000    0.00000000
     atom   11 type  1   force =     0.00000000    0.00000000    0.00000000
     atom   12 type  1   force =     0.00000000    0.00000000    0.00000000
     atom   13 type  1   force =     0.00000000    0.00000000    0.00000000
     atom   14 type  1   force =     0.00000000    0.00000000    0.00000000
     atom   15 type  1   force =     0.00000000    0.00000000    0.00000000
     atom   16 type  1   force =     0.00000000    0.00000000    0.00000000
     atom   17 type  2   force =     0.00000000    0.00000000    0.00000000
     atom   18 type  2   force =     0.00000000    0.00000000    0.00000000
     atom   19 type  1   force =     0.00000000    0.00000000    0.00000000
     atom   20 type  1   force =     0.00000000    0.00000000    0.00000000
     atom   21 type  2   force =     0.00000000    0.00000000    0.00000000
     atom   22 type  2   force =     0.00000000    0.00000000    0.00000000
     atom   23 type  1   force =     0.00000000    0.00000000    0.00000000
     atom   24 type  1   force =     0.00000000    0.00000000    0.00000000
     atom   25 type  1   force =     0.00000000    0.00000000    0.00000000
     atom   26 type  1   force =     0.00000000    0.00000000    0.00000000
     atom   27 type  1   force =     0.00000000    0.00000000    0.00000000
     atom   28 type  1   force =     0.00000000    0.00000000    0.00000000
     atom   29 type  2   force =     0.00000000    0.00000000    0.00000000
     atom   30 type  2   force =     0.00000000    0.00000000    0.00000000
     atom   31 type  1   force =     0.00000000    0.00000000    0.00000000
     atom   32 type  1   force =     0.00000000    0.00000000    0.00000000
     atom   33 type  2   force =     0.00000000    0.00000000    0.00000000
     atom   34 type  2   force =     0.00000000    0.00000000    0.00000000
     atom   35 type  1   force =     0.00000000    0.00000000    0.00000000
     atom   36 type  1   force =     0.00000000    0.00000000    0.00000000
     atom   37 type  1   force =     0.00000000    0.00000000    0.00000000
     atom   38 type  1   force =     0.00000000    0.00000000    0.00000000
     atom   39 type  1   force =     0.00000000    0.00000000    0.00000000
     atom   40 type  1   force =     0.00000000    0.00000000    0.00000000
     atom   41 type  3   force =     0.00000000    0.00000000    0.00000000
     atom   42 type  3   force =     0.00000000    0.00000000    0.00000000
     atom   43 type  3   force =     0.00000000    0.00000000    0.00000000
     atom   44 type  3   force =     0.00000000    0.00000000    0.00000000
     atom   45 type  3   force =     0.00000000    0.00000000    0.00000000
     atom   46 type  3   force =     0.00000000    0.00000000    0.00000000
     The SCF correction term to forces
     atom    1 type  1   force =    -0.00001120   -0.00000263   -0.00000377
     atom    2 type  1   force =     0.00000876   -0.00000200   -0.00000725
     atom    3 type  1   force =    -0.00001428    0.00000267   -0.00000882
     atom    4 type  1   force =     0.00001538    0.00000265    0.00000044
     atom    5 type  2   force =    -0.00001195    0.00000339   -0.00002650
     atom    6 type  2   force =     0.00001135    0.00000341   -0.00004331
     atom    7 type  1   force =    -0.00000770    0.00000201   -0.00001230
     atom    8 type  1   force =     0.00000765   -0.00000305   -0.00001579
     atom    9 type  2   force =    -0.00002036   -0.00000403   -0.00003845
     atom   10 type  2   force =     0.00002092   -0.00000381   -0.00002881
     atom   11 type  1   force =    -0.00000808   -0.00000325   -0.00001003
     atom   12 type  1   force =     0.00000745    0.00000208   -0.00001353
     atom   13 type  1   force =    -0.00000842    0.00000076   -0.00001465
     atom   14 type  1   force =     0.00000820    0.00000048   -0.00001871
     atom   15 type  1   force =    -0.00000999   -0.00000056   -0.00001437
     atom   16 type  1   force =     0.00000956   -0.00000030   -0.00001176
     atom   17 type  2   force =    -0.00001398    0.00000045    0.00000736
     atom   18 type  2   force =     0.00001242    0.00000024    0.00000738
     atom   19 type  1   force =    -0.00000689   -0.00000629    0.00000266
     atom   20 type  1   force =     0.00000744    0.00000128    0.00000268
     atom   21 type  2   force =    -0.00001190   -0.00000053    0.00000709
     atom   22 type  2   force =     0.00001181   -0.00000030    0.00000713
     atom   23 type  1   force =    -0.00000682    0.00000644    0.00000268
     atom   24 type  1   force =     0.00000741   -0.00000120    0.00000270
     atom   25 type  1   force =    -0.00001001   -0.00000054    0.00001829
     atom   26 type  1   force =     0.00000959   -0.00000028    0.00001546
     atom   27 type  1   force =    -0.00000847    0.00000073    0.00001666
     atom   28 type  1   force =     0.00000825    0.00000045    0.00002077
     atom   29 type  2   force =    -0.00001191    0.00000329    0.00002330
     atom   30 type  2   force =     0.00001130    0.00000329    0.00004007
     atom   31 type  1   force =    -0.00000772    0.00000180    0.00001136
     atom   32 type  1   force =     0.00000767   -0.00000327    0.00001475
     atom   33 type  2   force =    -0.00002047   -0.00000387    0.00003511
     atom   34 type  2   force =     0.00002104   -0.00000370    0.00002471
     atom   35 type  1   force =    -0.00000812   -0.00000301    0.00000873
     atom   36 type  1   force =     0.00000748    0.00000234    0.00001221
     atom   37 type  1   force =    -0.00001432    0.00000254    0.00000645
     atom   38 type  1   force =     0.00001543    0.00000261   -0.00000285
     atom   39 type  1   force =    -0.00001129   -0.00000257    0.00000193
     atom   40 type  1   force =     0.00000880   -0.00000197    0.00000540
     atom   41 type  3   force =    -0.00000220   -0.00000041   -0.00000050
     atom   42 type  3   force =    -0.00000217   -0.00000039    0.00000027
     atom   43 type  3   force =    -0.00000159    0.00000018   -0.00000061
     atom   44 type  3   force =    -0.00000160    0.00000017    0.00000030
     atom   45 type  3   force =     0.00000143    0.00000020   -0.00000076
     atom   46 type  3   force =     0.00000143    0.00000019    0.00000053

     Total force =     0.004255     Total SCF correction =     0.000136

     BFGS Geometry Optimization
     Energy error            =      0.0E+00 Ry
     Gradient error          =      1.2E-03 Ry/Bohr

     number of scf cycles    =   1
     number of bfgs steps    =   0

     energy             new  =   -3435.1269113352 Ry

     new trust radius        =       0.0011757196 bohr
     new conv_thr            =       0.0000000010 Ry


ATOMIC_POSITIONS (crystal)
O             0.0027374790        0.4381342772        0.2687334495
O             0.4860989739        0.4851076271        0.2726826876
O             0.0004225054        0.0071542478        0.3014495733
O             0.4991128376       -0.0000617772        0.3045801066
Ru            0.2494369952       -0.0037634639        0.3589671616
Ru            0.7501798823       -0.0041148248        0.3586882543
O             0.2483361951        0.3082862723        0.3626768298
O             0.7499252220        0.3084810497        0.3601861595
Ru           -0.0007050895        0.4955139692        0.3574981839
Ru            0.5000496105        0.4948293624        0.3508521212
O             0.2424046199        0.6857719015        0.3542459502
O             0.7549634181        0.6839035435        0.3534106530
O            -0.0007163189       -0.0044910544        0.4111535500
O             0.5009489126       -0.0080145358        0.4117661833
O            -0.0031945458        0.5049087107        0.4461941328
O             0.4967968600        0.5056819671        0.4428614130
Ru            0.0021179051        0.0020096715        0.5000010000
Ru            0.5026464401        0.0036882912        0.5000010000
O             0.2540410534        0.1898052075        0.5000010000
O             0.7544149616        0.1892765346        0.5000010000
Ru            0.2460440910        0.5038091549        0.5000010000
Ru            0.7422480041        0.5033282909        0.5000010000
O             0.2548688809        0.8174997986        0.5000010000
O             0.7536663354        0.8170639477        0.5000010000
O            -0.0031945458        0.5049087107        0.5538068672
O             0.4967968600        0.5056819671        0.5571395870
O            -0.0007163189       -0.0044910544        0.5888474500
O             0.5009489126       -0.0080145358        0.5882348167
Ru            0.2494369952       -0.0037634639        0.6410338384
Ru            0.7501798823       -0.0041148248        0.6413127457
O             0.2483361951        0.3082862723        0.6373241702
O             0.7499252220        0.3084810497        0.6398148405
Ru           -0.0007050895        0.4955139692        0.6425028161
Ru            0.5000496105        0.4948293624        0.6491488788
O             0.2424046199        0.6857719015        0.6457550498
O             0.7549634181        0.6839035435        0.6465903470
O             0.0004225054        0.0071542478        0.6985524267
O             0.4991128376       -0.0000617772        0.6954218934
O             0.0027374790        0.4381342772        0.7312675505
O             0.4860989739        0.4851076271        0.7273183124
H             0.1373076355        0.4741189084        0.2520890758
H             0.1373076355        0.4741189084        0.7479109242
H             0.0001166523        0.1550837107        0.2788803877
H             0.0001166523        0.1550837107        0.7211196123
H             0.4983893188        0.9602306601        0.2617768970
H             0.4983893188        0.9602306601        0.7382231030



     Writing config-only to output data dir /storage/home/mgm6007/ixd4/Maria/Strain1_Files/RuO2-110-0-025/RuO2-110-0-025.save/
     NEW-OLD atomic charge density approx. for the potential

     Check: negative core charge=   -0.000001

     negative rho (up, down):  1.416E-04 0.000E+00

     add environment contribution to local potential
     Polarization accuracy = 9.7E-12, # of iterations =  45

     total cpu time spent up to now is    17568.4 secs

     per-process dynamical memory:   215.2 Mb

     Self-consistent Calculation

     iteration #  1     ecut=    50.00 Ry     beta= 0.70
     Davidson diagonalization with overlap
     ethr =  1.00E-06,  avg # of iterations =  2.0

     Threshold (ethr) on eigenvalues was too large:
     Diagonalizing with lowered threshold

     Davidson diagonalization with overlap
     ethr =  2.17E-09,  avg # of iterations =  3.0

     negative rho (up, down):  1.443E-04 0.000E+00

     add environment contribution to local potential
     Polarization accuracy = 4.5E-12, # of iterations =  45

     total cpu time spent up to now is    17726.1 secs

     total energy              =   -3435.12692366 Ry
     estimated scf accuracy    <       0.00000789 Ry
     electrostatic embedding   =      -0.05532782 Ry
     cavitation energy         =       0.02096376 Ry
     PV energy                 =      -0.08018399 Ry
     correction to one-el term =     190.82941944 Ry

     iteration #  2     ecut=    50.00 Ry     beta= 0.70
     Davidson diagonalization with overlap
     ethr =  2.16E-09,  avg # of iterations =  2.0

     negative rho (up, down):  1.428E-04 0.000E+00

     add environment contribution to local potential
     Polarization accuracy = 5.9E-12, # of iterations =  45

     total cpu time spent up to now is    17888.7 secs

     total energy              =   -3435.12692405 Ry
     estimated scf accuracy    <       0.00001925 Ry
     electrostatic embedding   =      -0.05535143 Ry
     cavitation energy         =       0.02096382 Ry
     PV energy                 =      -0.08018295 Ry
     correction to one-el term =     190.83252652 Ry

     iteration #  3     ecut=    50.00 Ry     beta= 0.70
     Davidson diagonalization with overlap
     ethr =  2.16E-09,  avg # of iterations =  1.0

     negative rho (up, down):  1.425E-04 0.000E+00

     add environment contribution to local potential
     Polarization accuracy = 6.7E-12, # of iterations =  46

     total cpu time spent up to now is    18024.6 secs

     total energy              =   -3435.12692501 Ry
     estimated scf accuracy    <       0.00000079 Ry
     electrostatic embedding   =      -0.05535305 Ry
     cavitation energy         =       0.02096360 Ry
     PV energy                 =      -0.08018336 Ry
     correction to one-el term =     190.83083001 Ry

     iteration #  4     ecut=    50.00 Ry     beta= 0.70
     Davidson diagonalization with overlap
     ethr =  2.17E-10,  avg # of iterations =  2.0

     negative rho (up, down):  1.422E-04 0.000E+00

     add environment contribution to local potential
     Polarization accuracy = 8.4E-12, # of iterations =  45

     total cpu time spent up to now is    18173.1 secs

     total energy              =   -3435.12692515 Ry
     estimated scf accuracy    <       0.00000031 Ry
     electrostatic embedding   =      -0.05536560 Ry
     cavitation energy         =       0.02096343 Ry
     PV energy                 =      -0.08018328 Ry
     correction to one-el term =     190.83073235 Ry

     iteration #  5     ecut=    50.00 Ry     beta= 0.70
     Davidson diagonalization with overlap
     ethr =  8.58E-11,  avg # of iterations =  2.0

     negative rho (up, down):  1.416E-04 0.000E+00

     add environment contribution to local potential
     Polarization accuracy = 4.5E-12, # of iterations =  45

     total cpu time spent up to now is    18324.1 secs

     total energy              =   -3435.12692529 Ry
     estimated scf accuracy    <       0.00000012 Ry
     electrostatic embedding   =      -0.05537525 Ry
     cavitation energy         =       0.02096328 Ry
     PV energy                 =      -0.08018325 Ry
     correction to one-el term =     190.83040017 Ry

     iteration #  6     ecut=    50.00 Ry     beta= 0.70
     Davidson diagonalization with overlap
     ethr =  3.24E-11,  avg # of iterations =  2.0

     negative rho (up, down):  1.412E-04 0.000E+00

     add environment contribution to local potential
     Polarization accuracy = 6.9E-12, # of iterations =  45

     total cpu time spent up to now is    18462.0 secs

     total energy              =   -3435.12692541 Ry
     estimated scf accuracy    <       0.00000003 Ry
     electrostatic embedding   =      -0.05538223 Ry
     cavitation energy         =       0.02096316 Ry
     PV energy                 =      -0.08018326 Ry
     correction to one-el term =     190.82982741 Ry

     iteration #  7     ecut=    50.00 Ry     beta= 0.70
     Davidson diagonalization with overlap
     ethr =  6.85E-12,  avg # of iterations =  2.0

     negative rho (up, down):  1.402E-04 0.000E+00

     add environment contribution to local potential
     Polarization accuracy = 2.9E-12, # of iterations =  46

     total cpu time spent up to now is    18599.3 secs

     total energy              =   -3435.12692546 Ry
     estimated scf accuracy    <       0.00000001 Ry
     electrostatic embedding   =      -0.05538502 Ry
     cavitation energy         =       0.02096312 Ry
     PV energy                 =      -0.08018327 Ry
     correction to one-el term =     190.82944421 Ry

     iteration #  8     ecut=    50.00 Ry     beta= 0.70
     Davidson diagonalization with overlap
     ethr =  3.63E-12,  avg # of iterations =  2.0

     negative rho (up, down):  1.399E-04 0.000E+00

     add environment contribution to local potential
     Polarization accuracy = 6.8E-12, # of iterations =  46

     total cpu time spent up to now is    18745.0 secs

     total energy              =   -3435.12692555 Ry
     estimated scf accuracy    <          4.0E-09 Ry
     electrostatic embedding   =      -0.05539065 Ry
     cavitation energy         =       0.02096302 Ry
     PV energy                 =      -0.08018327 Ry
     correction to one-el term =     190.82837888 Ry

     iteration #  9     ecut=    50.00 Ry     beta= 0.70
     Davidson diagonalization with overlap
     ethr =  1.08E-12,  avg # of iterations =  2.0

     negative rho (up, down):  1.397E-04 0.000E+00

     add environment contribution to local potential
     Polarization accuracy = 4.1E-12, # of iterations =  45

     total cpu time spent up to now is    18901.7 secs

     total energy              =   -3435.12692559 Ry
     estimated scf accuracy    <          2.4E-09 Ry
     electrostatic embedding   =      -0.05539298 Ry
[...]
     atom   11 type  1   force =    -0.00029370    0.00016243   -0.00038730
     atom   12 type  1   force =     0.00052409    0.00021541   -0.00088689
     atom   13 type  1   force =    -0.00014987   -0.00008115    0.00003785
     atom   14 type  1   force =    -0.00015390   -0.00071759   -0.00029160
     atom   15 type  1   force =    -0.00039377    0.00051237    0.00031455
     atom   16 type  1   force =    -0.00051695    0.00009460   -0.00265233
     atom   17 type  2   force =     0.00000000    0.00000000    0.00000000
     atom   18 type  2   force =     0.00000000    0.00000000    0.00000000
     atom   19 type  1   force =     0.00013239   -0.00054483   -0.00000205
     atom   20 type  1   force =     0.00051338   -0.00052172   -0.00000205
     atom   21 type  2   force =     0.00000000    0.00000000    0.00000000
     atom   22 type  2   force =     0.00000000    0.00000000    0.00000000
     atom   23 type  1   force =     0.00028554    0.00059802   -0.00000196
     atom   24 type  1   force =     0.00040566    0.00054875   -0.00000197
     atom   25 type  1   force =    -0.00039377    0.00051255   -0.00031682
     atom   26 type  1   force =    -0.00051686    0.00009455    0.00265026
     atom   27 type  1   force =    -0.00014987   -0.00008123   -0.00004008
     atom   28 type  1   force =    -0.00015390   -0.00071776    0.00028938
     atom   29 type  2   force =     0.00000000    0.00000000    0.00000000
     atom   30 type  2   force =     0.00000000    0.00000000    0.00000000
     atom   31 type  1   force =    -0.00071574   -0.00000171   -0.00195688
     atom   32 type  1   force =     0.00098320    0.00002638   -0.00128273
     atom   33 type  2   force =     0.00000000    0.00000000    0.00000000
     atom   34 type  2   force =     0.00000000    0.00000000    0.00000000
     atom   35 type  1   force =    -0.00029358    0.00016235    0.00038530
     atom   36 type  1   force =     0.00052399    0.00021527    0.00088493
     atom   37 type  1   force =    -0.00004422   -0.01326062    0.00233677
     atom   38 type  1   force =     0.00007114    0.00244825   -0.00921520
     atom   39 type  1   force =    -0.01705581   -0.00358156    0.00357972
     atom   40 type  1   force =    -0.00008440   -0.00026112    0.01041221
     atom   41 type  3   force =     0.00000000    0.00000000    0.00000000
     atom   42 type  3   force =     0.00000000    0.00000000    0.00000000
     atom   43 type  3   force =     0.00000000    0.00000000    0.00000000
     atom   44 type  3   force =     0.00000000    0.00000000    0.00000000
     atom   45 type  3   force =     0.00000000    0.00000000    0.00000000
     atom   46 type  3   force =     0.00000000    0.00000000    0.00000000
     The Hubbard contrib.    to forces
     atom    1 type  1   force =     0.00000000    0.00000000    0.00000000
     atom    2 type  1   force =     0.00000000    0.00000000    0.00000000
     atom    3 type  1   force =     0.00000000    0.00000000    0.00000000
     atom    4 type  1   force =     0.00000000    0.00000000    0.00000000
     atom    5 type  2   force =     0.00000000    0.00000000    0.00000000
     atom    6 type  2   force =     0.00000000    0.00000000    0.00000000
     atom    7 type  1   force =     0.00000000    0.00000000    0.00000000
     atom    8 type  1   force =     0.00000000    0.00000000    0.00000000
     atom    9 type  2   force =     0.00000000    0.00000000    0.00000000
     atom   10 type  2   force =     0.00000000    0.00000000    0.00000000
     atom   11 type  1   force =     0.00000000    0.00000000    0.00000000
     atom   12 type  1   force =     0.00000000    0.00000000    0.00000000
     atom   13 type  1   force =     0.00000000    0.00000000    0.00000000
     atom   14 type  1   force =     0.00000000    0.00000000    0.00000000
     atom   15 type  1   force =     0.00000000    0.00000000    0.00000000
     atom   16 type  1   force =     0.00000000    0.00000000    0.00000000
     atom   17 type  2   force =     0.00000000    0.00000000    0.00000000
     atom   18 type  2   force =     0.00000000    0.00000000    0.00000000
     atom   19 type  1   force =     0.00000000    0.00000000    0.00000000
     atom   20 type  1   force =     0.00000000    0.00000000    0.00000000
     atom   21 type  2   force =     0.00000000    0.00000000    0.00000000
     atom   22 type  2   force =     0.00000000    0.00000000    0.00000000
     atom   23 type  1   force =     0.00000000    0.00000000    0.00000000
     atom   24 type  1   force =     0.00000000    0.00000000    0.00000000
     atom   25 type  1   force =     0.00000000    0.00000000    0.00000000
     atom   26 type  1   force =     0.00000000    0.00000000    0.00000000
     atom   27 type  1   force =     0.00000000    0.00000000    0.00000000
     atom   28 type  1   force =     0.00000000    0.00000000    0.00000000
     atom   29 type  2   force =     0.00000000    0.00000000    0.00000000
     atom   30 type  2   force =     0.00000000    0.00000000    0.00000000
     atom   31 type  1   force =     0.00000000    0.00000000    0.00000000
     atom   32 type  1   force =     0.00000000    0.00000000    0.00000000
     atom   33 type  2   force =     0.00000000    0.00000000    0.00000000
     atom   34 type  2   force =     0.00000000    0.00000000    0.00000000
     atom   35 type  1   force =     0.00000000    0.00000000    0.00000000
     atom   36 type  1   force =     0.00000000    0.00000000    0.00000000
     atom   37 type  1   force =     0.00000000    0.00000000    0.00000000
     atom   38 type  1   force =     0.00000000    0.00000000    0.00000000
     atom   39 type  1   force =     0.00000000    0.00000000    0.00000000
     atom   40 type  1   force =     0.00000000    0.00000000    0.00000000
     atom   41 type  3   force =     0.00000000    0.00000000    0.00000000
     atom   42 type  3   force =     0.00000000    0.00000000    0.00000000
     atom   43 type  3   force =     0.00000000    0.00000000    0.00000000
     atom   44 type  3   force =     0.00000000    0.00000000    0.00000000
     atom   45 type  3   force =     0.00000000    0.00000000    0.00000000
     atom   46 type  3   force =     0.00000000    0.00000000    0.00000000
     The SCF correction term to forces
     atom    1 type  1   force =    -0.00000019    0.00000071   -0.00000085
     atom    2 type  1   force =    -0.00000006    0.00000038   -0.00000133
     atom    3 type  1   force =    -0.00000055   -0.00000063   -0.00000083
     atom    4 type  1   force =     0.00000072   -0.00000006   -0.00000140
     atom    5 type  2   force =    -0.00000048   -0.00000068   -0.00000099
     atom    6 type  2   force =     0.00000051   -0.00000053   -0.00000143
     atom    7 type  1   force =    -0.00000013    0.00000097   -0.00000023
     atom    8 type  1   force =     0.00000031    0.00000008   -0.00000044
     atom    9 type  2   force =    -0.00000056    0.00000074   -0.00000096
     atom   10 type  2   force =     0.00000026    0.00000066   -0.00000138
     atom   11 type  1   force =    -0.00000026   -0.00000080   -0.00000039
     atom   12 type  1   force =     0.00000036    0.00000006   -0.00000054
     atom   13 type  1   force =    -0.00000061   -0.00000007    0.00000062
     atom   14 type  1   force =     0.00000062   -0.00000037   -0.00000086
     atom   15 type  1   force =     0.00000039    0.00000010    0.00000028
     atom   16 type  1   force =    -0.00000055    0.00000039    0.00000028
     atom   17 type  2   force =     0.00000007    0.00000030    0.00000001
     atom   18 type  2   force =    -0.00000004   -0.00000022    0.00000001
     atom   19 type  1   force =    -0.00000152    0.00000111    0.00000000
     atom   20 type  1   force =     0.00000144    0.00000037    0.00000000
     atom   21 type  2   force =    -0.00000070    0.00000018    0.00000001
     atom   22 type  2   force =     0.00000090   -0.00000008    0.00000001
     atom   23 type  1   force =    -0.00000147   -0.00000113    0.00000000
     atom   24 type  1   force =     0.00000142   -0.00000025    0.00000000
     atom   25 type  1   force =     0.00000039    0.00000010   -0.00000027
     atom   26 type  1   force =    -0.00000055    0.00000039   -0.00000027
     atom   27 type  1   force =    -0.00000061   -0.00000007   -0.00000061
     atom   28 type  1   force =     0.00000062   -0.00000037    0.00000086
     atom   29 type  2   force =    -0.00000048   -0.00000068    0.00000099
     atom   30 type  2   force =     0.00000051   -0.00000053    0.00000143
     atom   31 type  1   force =    -0.00000012    0.00000097    0.00000023
     atom   32 type  1   force =     0.00000031    0.00000008    0.00000044
     atom   33 type  2   force =    -0.00000056    0.00000074    0.00000096
     atom   34 type  2   force =     0.00000026    0.00000066    0.00000138
     atom   35 type  1   force =    -0.00000026   -0.00000080    0.00000039
     atom   36 type  1   force =     0.00000036    0.00000006    0.00000054
     atom   37 type  1   force =    -0.00000055   -0.00000063    0.00000083
     atom   38 type  1   force =     0.00000072   -0.00000006    0.00000140
     atom   39 type  1   force =    -0.00000020    0.00000071    0.00000085
     atom   40 type  1   force =    -0.00000006    0.00000038    0.00000133
     atom   41 type  3   force =    -0.00000001    0.00000006   -0.00000015
     atom   42 type  3   force =    -0.00000001    0.00000006    0.00000015
     atom   43 type  3   force =    -0.00000005    0.00000003   -0.00000018
     atom   44 type  3   force =    -0.00000005    0.00000003    0.00000018
     atom   45 type  3   force =     0.00000004   -0.00000004   -0.00000017
     atom   46 type  3   force =     0.00000004   -0.00000004    0.00000017

     Total force =     0.000563     Total SCF correction =     0.000007
     Energy error            =      4.6E-07 Ry
     Gradient error          =      1.3E-04 Ry/Bohr

     number of scf cycles    =  35
     number of bfgs steps    =  34

     energy             old  =   -3435.1271802343 Ry
     energy             new  =   -3435.1271806954 Ry

     CASE: energy            _new < energy            _old

     new trust radius        =       0.0008158270 bohr
     new conv_thr            =            1.0E-11 Ry


ATOMIC_POSITIONS (crystal)
O             0.0035902775        0.4377769463        0.2688525120
O             0.4854499768        0.4862559971        0.2725620092
O             0.0002028190        0.0049919490        0.3011747785
O             0.4991281848       -0.0021155140        0.3046142314
Ru            0.2493865743       -0.0053327179        0.3588116769
Ru            0.7499933820       -0.0056787735        0.3585532752
O             0.2488083313        0.3067122133        0.3626368723
O             0.7492578990        0.3069784726        0.3600736725
Ru           -0.0007754317        0.4936937843        0.3576211471
Ru            0.4999269761        0.4936469707        0.3507656122
O             0.2417481463        0.6842872115        0.3544591766
O             0.7553481497        0.6823726339        0.3534876850
O            -0.0007294934       -0.0057290086        0.4110309866
O             0.5007990992       -0.0092251872        0.4117379782
O            -0.0033942110        0.5046040691        0.4462281991
O             0.4963603564        0.5059506171        0.4428061533
Ru            0.0021299507        0.0029255972        0.5000010000
Ru            0.5026005123        0.0039450174        0.5000010000
O             0.2543412409        0.1903519591        0.5000010000
O             0.7541062403        0.1899300377        0.5000010000
Ru            0.2458310878        0.5044067705        0.5000010000
Ru            0.7417491174        0.5040620981        0.5000010000
O             0.2544898207        0.8180928907        0.5000010000
O             0.7541150799        0.8176971675        0.5000010000
O            -0.0033942110        0.5046040691        0.5537728009
O             0.4963603564        0.5059506171        0.5571948467
O            -0.0007294934       -0.0057290086        0.5889700134
O             0.5007990992       -0.0092251872        0.5882630218
Ru            0.2493865743       -0.0053327179        0.6411893231
Ru            0.7499933820       -0.0056787735        0.6414477248
O             0.2488083313        0.3067122133        0.6373641277
O             0.7492578990        0.3069784726        0.6399273275
Ru           -0.0007754317        0.4936937843        0.6423798529
Ru            0.4999269761        0.4936469707        0.6492353878
O             0.2417481463        0.6842872115        0.6455418234
O             0.7553481497        0.6823726339        0.6465133150
O             0.0002028190        0.0049919490        0.6988272215
O             0.4991281848       -0.0021155140        0.6953877686
O             0.0035902775        0.4377769463        0.7311484880
O             0.4854499768        0.4862559971        0.7274389908
H             0.1387235356        0.4735128149        0.2525879384
H             0.1387235356        0.4735128149        0.7474120616
H             0.0002167860        0.1524219421        0.2785155346
H             0.0002167860        0.1524219421        0.7214844654
H             0.4989121170        0.9791708104        0.2608035944
H             0.4989121170        0.9791708104        0.7391964056



     Writing config-only to output data dir /storage/home/mgm6007/ixd4/Maria/Strain1_Files/RuO2-110-0-025/RuO2-110-0-025.save/
     NEW-OLD atomic charge density approx. for the potential

     Check: negative core charge=   -0.000001

     negative rho (up, down):  1.410E-04 0.000E+00

     add environment contribution to local potential
     Polarization accuracy = 9.4E-12, # of iterations =  45

     total cpu time spent up to now is   206208.1 secs

     per-process dynamical memory:   215.2 Mb

     Self-consistent Calculation

     iteration #  1     ecut=    50.00 Ry     beta= 0.70
     Davidson diagonalization with overlap
     ethr =  1.00E-06,  avg # of iterations =  2.0

     Threshold (ethr) on eigenvalues was too large:
     Diagonalizing with lowered threshold

     Davidson diagonalization with overlap
     ethr =  2.99E-10,  avg # of iterations =  4.0

     negative rho (up, down):  1.404E-04 0.000E+00

     add environment contribution to local potential
     Polarization accuracy = 6.5E-12, # of iterations =  45

     total cpu time spent up to now is   206352.9 secs

     total energy              =   -3435.12718078 Ry
     estimated scf accuracy    <       0.00000064 Ry
     electrostatic embedding   =      -0.05660841 Ry
     cavitation energy         =       0.02097365 Ry
     PV energy                 =      -0.08021595 Ry
     correction to one-el term =     190.74520581 Ry

     iteration #  2     ecut=    50.00 Ry     beta= 0.70
     Davidson diagonalization with overlap
     ethr =  1.76E-10,  avg # of iterations =  1.0

     negative rho (up, down):  1.403E-04 0.000E+00

     add environment contribution to local potential
     Polarization accuracy = 5.6E-12, # of iterations =  46

     total cpu time spent up to now is   206490.2 secs

     total energy              =   -3435.12718090 Ry
     estimated scf accuracy    <       0.00000058 Ry
     electrostatic embedding   =      -0.05660687 Ry
     cavitation energy         =       0.02097343 Ry
     PV energy                 =      -0.08021607 Ry
     correction to one-el term =     190.74586922 Ry

     iteration #  3     ecut=    50.00 Ry     beta= 0.70
     Davidson diagonalization with overlap
     ethr =  1.57E-10,  avg # of iterations =  1.0

     negative rho (up, down):  1.399E-04 0.000E+00

     add environment contribution to local potential
     Polarization accuracy = 7.8E-12, # of iterations =  46

     total cpu time spent up to now is   206630.0 secs

     total energy              =   -3435.12718095 Ry
     estimated scf accuracy    <       0.00000022 Ry
     electrostatic embedding   =      -0.05660667 Ry
     cavitation energy         =       0.02097336 Ry
     PV energy                 =      -0.08021607 Ry
     correction to one-el term =     190.74618137 Ry

     iteration #  4     ecut=    50.00 Ry     beta= 0.70
     Davidson diagonalization with overlap
     ethr =  6.13E-11,  avg # of iterations =  2.0

     negative rho (up, down):  1.398E-04 0.000E+00

     add environment contribution to local potential
     Polarization accuracy = 8.1E-12, # of iterations =  45

     total cpu time spent up to now is   206777.5 secs

     total energy              =   -3435.12718102 Ry
     estimated scf accuracy    <       0.00000005 Ry
     electrostatic embedding   =      -0.05660584 Ry
     cavitation energy         =       0.02097319 Ry
     PV energy                 =      -0.08021610 Ry
     correction to one-el term =     190.74679328 Ry

     iteration #  5     ecut=    50.00 Ry     beta= 0.70
     Davidson diagonalization with overlap
     ethr =  1.41E-11,  avg # of iterations =  1.0

     negative rho (up, down):  1.398E-04 0.000E+00

     add environment contribution to local potential
     Polarization accuracy = 7.4E-12, # of iterations =  46

     total cpu time spent up to now is   206922.0 secs

     total energy              =   -3435.12718104 Ry
     estimated scf accuracy    <          3.7E-09 Ry
     electrostatic embedding   =      -0.05660554 Ry
     cavitation energy         =       0.02097314 Ry
     PV energy                 =      -0.08021611 Ry
     correction to one-el term =     190.74695713 Ry

     iteration #  6     ecut=    50.00 Ry     beta= 0.70
     Davidson diagonalization with overlap
     ethr =  1.00E-12,  avg # of iterations =  5.0

     negative rho (up, down):  1.398E-04 0.000E+00

     add environment contribution to local potential
     Polarization accuracy = 4.3E-12, # of iterations =  46

     total cpu time spent up to now is   207072.2 secs

     total energy              =   -3435.12718104 Ry
     estimated scf accuracy    <          1.5E-09 Ry
     electrostatic embedding   =      -0.05660535 Ry
     cavitation energy         =       0.02097311 Ry
     PV energy                 =      -0.08021611 Ry
     correction to one-el term =     190.74710764 Ry

     iteration #  7     ecut=    50.00 Ry     beta= 0.70
     Davidson diagonalization with overlap
     ethr =  3.98E-13,  avg # of iterations =  2.0

     negative rho (up, down):  1.399E-04 0.000E+00

     add environment contribution to local potential
     Polarization accuracy = 1.0E-11, # of iterations =  45

     total cpu time spent up to now is   207223.2 secs

     total energy              =   -3435.12718105 Ry
     estimated scf accuracy    <          9.8E-10 Ry
     electrostatic embedding   =      -0.05660511 Ry
     cavitation energy         =       0.02097307 Ry
     PV energy                 =      -0.08021611 Ry
     correction to one-el term =     190.74728609 Ry

     iteration #  8     ecut=    50.00 Ry     beta= 0.70
     Davidson diagonalization with overlap
     ethr =  2.68E-13,  avg # of iterations =  2.0

     negative rho (up, down):  1.400E-04 0.000E+00

     add environment contribution to local potential
     Polarization accuracy = 7.6E-12, # of iterations =  46

     total cpu time spent up to now is   207357.1 secs

     total energy              =   -3435.12718105 Ry
     estimated scf accuracy    <          1.7E-10 Ry
     electrostatic embedding   =      -0.05660492 Ry
     cavitation energy         =       0.02097304 Ry
     PV energy                 =      -0.08021611 Ry
     correction to one-el term =     190.74739312 Ry

     iteration #  9     ecut=    50.00 Ry     beta= 0.70
     Davidson diagonalization with overlap
     ethr =  1.00E-13,  avg # of iterations =  2.0

     negative rho (up, down):  1.402E-04 0.000E+00

     add environment contribution to local potential
