
     Program PWSCF v.7.2 starts on 21Jul2023 at 17: 1:44 
        Git branch: heads/qe-7.2
        Last git commit: b4c5e8deeb7d1863e7553a87b45f8d22c21926a5
        Last git commit date: Mon Mar 27 16:12:09 2023 +0000
        Last git commit subject: Merge branch 'merge_fix_hubbard' into 'develop'

     This program is part of the open-source Quantum ESPRESSO suite
     for quantum simulation of materials; please cite
         "P. Giannozzi et al., J. Phys.:Condens. Matter 21 395502 (2009);
         "P. Giannozzi et al., J. Phys.:Condens. Matter 29 465901 (2017);
         "P. Giannozzi et al., J. Chem. Phys. 152 154105 (2020);
          URL http://www.quantum-espresso.org", 
     in publications or presentations arising from this work. More details at
     http://www.quantum-espresso.org/quote

     Parallel version (MPI), running on    20 processors

     MPI processes distributed on     1 nodes
     104892 MiB available memory on the printing compute node when the environment starts
 
     Reading input from RuO2-110-0-2.in

     Current dimensions of program PWSCF are:
     Max number of different atomic species (ntypx) = 10
     Max number of k-points (npk) =  40000
     Max angular momentum in pseudopotentials (lmaxx) =  4
 
     Reading input from environ.in:
     * Environ restarting
     * setting up water environment
     * using electronic solvent mode
     * setting boundary derivatives method to SCCS default
     

     File /storage/home/mgm6007/ixd4/Maria/Strain2_Files/RuO2-110-0-2/RuO2-110-0-2.update deleted, as requested

     File /storage/home/mgm6007/ixd4/Maria/Strain2_Files/RuO2-110-0-2/RuO2-110-0-2.bfgs deleted, as requested
     file O.pbe-n-kjpaw_psl.0.1.UPF: wavefunction(s)  2P renormalized
     Message from routine setup:
     using ibrav=0 with symmetry is DISCOURAGED, use correct ibrav instead
 
     R & G space division:  proc/nbgrp/npool/nimage =      20
     Subspace diagonalization in iterative solution of the eigenvalue problem:
     one sub-group per band group will be used
     scalapack distributed-memory algorithm (size of sub-group:  2*  2 procs)

 
     Parallelization info
     --------------------
     sticks:   dense  smooth     PW     G-vecs:    dense   smooth      PW
     Min         279     111     29                55537    14039    1893
     Max         280     112     30                55546    14052    1904
     Sum        5595    2237    595              1110843   280917   37967
 
     Using Slab Decomposition
 


     bravais-lattice index     =            0
     lattice parameter (alat)  =      12.2467  a.u.
     unit-cell volume          =    5883.2137 (a.u.)^3
     number of atoms/cell      =           42
     number of atomic types    =            3
     number of electrons       =       362.00
     number of Kohn-Sham states=          217
     kinetic-energy cutoff     =      50.0000  Ry
     charge density cutoff     =     500.0000  Ry
     scf convergence threshold =      1.0E-09
     mixing beta               =       0.7000
     number of iterations used =            8  local-TF  mixing
     energy convergence thresh.=      1.0E-04
     force convergence thresh. =      1.0E-04
     Exchange-correlation= PBE
                           (   1   4   3   4   0   0   0)
     nstep                     =          200


     ================================================================================
 
                                  Environ Setup Summary

     ================================================================================
 
     Please cite

          O. Andreussi, I. Dabo and N. Marzari, J. Chem. Phys. 136, 064102 (2012)

     in publications or presentations arising from this work.

     ================================================================================
 
     Parameters
     ==========

     compensation onset threshold      =               0.1000E+00
     static permittivity               =                    78.30
     surface tension in input (dyn/cm) =                    47.90
     surface tension in internal units =               0.6153E-04
     external pressure in input (GPa)  =                    -0.36
     external pressure in inter. units =              -0.2447E-04

     Solvent Boundary
     ================

     solvent mode                      =               electronic
     derivatives method                =                    chain
     numerical core for derivatives    =                      fft
     switching function adopted        =                     SCCS
     density limit for vacuum region   =               0.5000E-02
     density limit for bulk solvent    =               0.1000E-03

     Electrostatic Setup
     ===================

     electrostatic problem to solve    =              generalized
     numerical solver adopted          =                       cg
     type of auxiliary density adopted =                     none
     numerical core for poisson        =                      fft
     type of pbc corrections           =                parabolic
     numerical core for corrections    =                      1da

     ================================================================================
 

     celldm(1)=  12.246684  celldm(2)=   0.000000  celldm(3)=   0.000000
     celldm(4)=   0.000000  celldm(5)=   0.000000  celldm(6)=   0.000000

     crystal axes: (cart. coord. in units of alat)
               a(1) = (   1.000000   0.000000   0.000000 )  
               a(2) = (   0.000000   0.937861   0.000000 )  
               a(3) = (   0.000000   0.000000   3.415235 )  

     reciprocal axes: (cart. coord. in units 2 pi/alat)
               b(1) = (  1.000000  0.000000  0.000000 )  
               b(2) = (  0.000000  1.066256  0.000000 )  
               b(3) = (  0.000000  0.000000  0.292806 )  


     PseudoPot. # 1 for O  read from file:
     /gpfs/group/ixd4/default/Simon/pseudopotentials/materialscloud/SSSP_1.3.0_PBE_efficiency/O.pbe-n-kjpaw_psl.0.1.UPF
     MD5 check sum: 0234752ac141de4415c5fc33072bef88
     Pseudo is Projector augmented-wave + core cor, Zval =  6.0
     Generated using "atomic" code by A. Dal Corso  v.5.0.99 svn rev. 10869
     Shape of augmentation charge: BESSEL
     Using radial grid of 1095 points,  4 beta functions with: 
                l(1) =   0
                l(2) =   0
                l(3) =   1
                l(4) =   1
     Q(r) pseudized with 0 coefficients 


     PseudoPot. # 2 for Ru read from file:
     /gpfs/group/ixd4/default/Simon/pseudopotentials/materialscloud/SSSP_1.3.0_PBE_efficiency/Ru_ONCV_PBE-1.0.oncvpsp.upf
     MD5 check sum: be037bb81c227cfb9b1461a9f099f4bd
     Pseudo is Norm-conserving, Zval = 16.0
     Generated using ONCVPSP code by D. R. Hamann
     Using radial grid of 1458 points,  6 beta functions with: 
                l(1) =   0
                l(2) =   0
                l(3) =   1
                l(4) =   1
                l(5) =   2
                l(6) =   2

     PseudoPot. # 3 for H  read from file:
     /gpfs/group/ixd4/default/Simon/pseudopotentials/materialscloud/SSSP_1.3.0_PBE_efficiency/H.pbe-rrkjus_psl.1.0.0.UPF
     MD5 check sum: f52b6d4d1c606e5624b1dc7b2218f220
     Pseudo is Ultrasoft, Zval =  1.0
     Generated using "atomic" code by A. Dal Corso  v.5.1
     Using radial grid of  929 points,  2 beta functions with: 
                l(1) =   0
                l(2) =   0
     Q(r) pseudized with 0 coefficients 


     atomic species   valence    mass     pseudopotential
        O              6.00    15.99940     O ( 1.00)
        Ru            16.00   101.07000     Ru( 1.00)
        H              1.00     1.00794     H ( 1.00)

      4 Sym. Ops. (no inversion) found



   Cartesian axes

     site n.     atom                  positions (alat units)
         1           O   tau(   1) = (   0.0000000   0.4723954   0.9394915  )
         2           O   tau(   2) = (   0.5000000   0.4699129   0.9381568  )
         3           O   tau(   3) = (   0.0000000   0.0017625   1.0309737  )
         4           O   tau(   4) = (   0.5000000   0.0016494   1.0523743  )
         5           Ru  tau(   5) = (   0.2564838   0.0035110   1.2193834  )
         6           Ru  tau(   6) = (   0.7435162   0.0035110   1.2193834  )
         7           O   tau(   7) = (   0.2492279   0.2949168   1.2292519  )
         8           O   tau(   8) = (   0.7507721   0.2949168   1.2292519  )
         9           Ru  tau(   9) = (   0.0000000   0.4727158   1.2045163  )
        10           Ru  tau(  10) = (   0.5000000   0.4720496   1.2025257  )
        11           O   tau(  11) = (   0.2502462   0.6494024   1.2297498  )
        12           O   tau(  12) = (   0.7497538   0.6494024   1.2297498  )
        13           O   tau(  13) = (   0.0000000   0.0017882   1.4085523  )
        14           O   tau(  14) = (   0.5000000   0.0021641   1.4064339  )
        15           O   tau(  15) = (   0.0000000   0.4706765   1.5204227  )
        16           O   tau(  16) = (   0.5000000   0.4697500   1.5203154  )
        17           Ru  tau(  17) = (   0.0000000   0.0002986   1.7076210  )
        18           Ru  tau(  18) = (   0.5000000   0.0014840   1.7076210  )
        19           O   tau(  19) = (   0.2492755   0.1772862   1.7076210  )
        20           O   tau(  20) = (   0.7507245   0.1772862   1.7076210  )
        21           Ru  tau(  21) = (   0.2505057   0.4696504   1.7076210  )
        22           Ru  tau(  22) = (   0.7494943   0.4696504   1.7076210  )
        23           O   tau(  23) = (   0.2502135   0.7622084   1.7076210  )
        24           O   tau(  24) = (   0.7497865   0.7622084   1.7076210  )
        25           O   tau(  25) = (   0.0000000   0.4706765   1.8948160  )
        26           O   tau(  26) = (   0.5000000   0.4697500   1.8949233  )
        27           O   tau(  27) = (   0.0000000   0.0017882   2.0066863  )
        28           O   tau(  28) = (   0.5000000   0.0021641   2.0088048  )
        29           Ru  tau(  29) = (   0.2564838   0.0035110   2.1958553  )
        30           Ru  tau(  30) = (   0.7435162   0.0035110   2.1958553  )
        31           O   tau(  31) = (   0.2492279   0.2949168   2.1859867  )
        32           O   tau(  32) = (   0.7507721   0.2949168   2.1859867  )
        33           Ru  tau(  33) = (   0.0000000   0.4727158   2.2107223  )
        34           Ru  tau(  34) = (   0.5000000   0.4720496   2.2127130  )
        35           O   tau(  35) = (   0.2502462   0.6494024   2.1854888  )
        36           O   tau(  36) = (   0.7497538   0.6494024   2.1854888  )
        37           O   tau(  37) = (   0.0000000   0.0017625   2.3842683  )
        38           O   tau(  38) = (   0.5000000   0.0016494   2.3628678  )
        39           O   tau(  39) = (   0.0000000   0.4723954   2.4757471  )
        40           O   tau(  40) = (   0.5000000   0.4699129   2.4770818  )
        41           H   tau(  41) = (   0.0000000   0.0626541   0.8925772  )
        42           H   tau(  42) = (   0.0000000   0.0626541   2.5226580  )

     number of k points=     1  Marzari-Vanderbilt smearing, width (Ry)=  0.0300
                       cart. coord. in units 2pi/alat
        k(    1) = (   0.2500000   0.2665641   0.0000000), wk =   2.0000000

     Dense  grid:  1110843 G-vectors     FFT dimensions: (  90,  81, 300)

     Smooth grid:   280917 G-vectors     FFT dimensions: (  60,  54, 192)

     Estimated max dynamical RAM per process >     169.95 MB

     Estimated total dynamical RAM >       3.32 GB

     Check: negative core charge=   -0.000001

     Initial potential from superposition of free atoms

     starting charge     361.9933, renormalised to     362.0000

     add environment contribution to local potential
     Polarization accuracy = 6.5E-12, # of iterations =  24

     negative rho (up, down):  4.109E-05 0.000E+00
     Starting wfcs are  234 randomized atomic wfcs
     Checking if some PAW data can be deallocated... 

     total cpu time spent up to now is      593.0 secs

     per-process dynamical memory:   138.3 Mb

     Self-consistent Calculation

     iteration #  1     ecut=    50.00 Ry     beta= 0.70
     Davidson diagonalization with overlap
     ethr =  1.00E-02,  avg # of iterations =  2.0

     total cpu time spent up to now is      745.9 secs

     total energy              =   -3427.48232728 Ry
     estimated scf accuracy    <      10.69977948 Ry
     electrostatic embedding   =      -0.00165087 Ry
     cavitation energy         =       0.01981308 Ry
     PV energy                 =      -0.08221747 Ry
     correction to one-el term =     212.97206455 Ry

     iteration #  2     ecut=    50.00 Ry     beta= 0.70
     Davidson diagonalization with overlap
     ethr =  2.96E-03,  avg # of iterations =  2.0

     total cpu time spent up to now is      897.9 secs

     total energy              =   -3429.84205017 Ry
     estimated scf accuracy    <       2.61333632 Ry
     electrostatic embedding   =      -0.00222849 Ry
     cavitation energy         =       0.02000611 Ry
     PV energy                 =      -0.08200785 Ry
     correction to one-el term =     212.97334175 Ry

     iteration #  3     ecut=    50.00 Ry     beta= 0.70
     Davidson diagonalization with overlap
     ethr =  7.22E-04,  avg # of iterations =  1.0

     total cpu time spent up to now is     1022.5 secs

     total energy              =   -3430.09386320 Ry
     estimated scf accuracy    <       0.70964055 Ry
     electrostatic embedding   =      -0.00259368 Ry
     cavitation energy         =       0.02003389 Ry
     PV energy                 =      -0.08233071 Ry
     correction to one-el term =     212.97442439 Ry

     iteration #  4     ecut=    50.00 Ry     beta= 0.70
     Davidson diagonalization with overlap
     ethr =  1.96E-04,  avg # of iterations =  1.0

     total cpu time spent up to now is     1167.5 secs

     total energy              =   -3430.14858022 Ry
     estimated scf accuracy    <       0.33055061 Ry
     electrostatic embedding   =      -0.00262673 Ry
     cavitation energy         =       0.02022540 Ry
     PV energy                 =      -0.08188570 Ry
     correction to one-el term =     212.97421041 Ry

     iteration #  5     ecut=    50.00 Ry     beta= 0.70
     Davidson diagonalization with overlap
     ethr =  9.13E-05,  avg # of iterations =  1.0

     total cpu time spent up to now is     1340.1 secs

     total energy              =   -3430.14832235 Ry
     estimated scf accuracy    <       0.14025414 Ry
     electrostatic embedding   =      -0.00275061 Ry
     cavitation energy         =       0.02049426 Ry
     PV energy                 =      -0.08143339 Ry
     correction to one-el term =     212.97425074 Ry

     iteration #  6     ecut=    50.00 Ry     beta= 0.70
     Davidson diagonalization with overlap
     ethr =  3.87E-05,  avg # of iterations =  2.0

     total cpu time spent up to now is     1506.5 secs

     total energy              =   -3430.14710045 Ry
     estimated scf accuracy    <       0.13340730 Ry
     electrostatic embedding   =      -0.00281861 Ry
     cavitation energy         =       0.02082656 Ry
     PV energy                 =      -0.08083027 Ry
     correction to one-el term =     212.97410572 Ry

     iteration #  7     ecut=    50.00 Ry     beta= 0.70
     Davidson diagonalization with overlap
     ethr =  3.69E-05,  avg # of iterations =  1.0

     add environment contribution to local potential
     Polarization accuracy = 1.9E-12, # of iterations =  39

     total cpu time spent up to now is     1649.4 secs

     total energy              =   -3430.14472361 Ry
     estimated scf accuracy    <       0.06106048 Ry
     electrostatic embedding   =      -0.00281160 Ry
     cavitation energy         =       0.02108706 Ry
     PV energy                 =      -0.08032813 Ry
     correction to one-el term =     212.97383798 Ry

     iteration #  8     ecut=    50.00 Ry     beta= 0.70
     Davidson diagonalization with overlap
     ethr =  1.69E-05,  avg # of iterations = 11.0

     total cpu time spent up to now is     1808.3 secs

     total energy              =   -3430.18097116 Ry
     estimated scf accuracy    <       0.10669954 Ry
     electrostatic embedding   =      -0.03328264 Ry
     cavitation energy         =       0.02141253 Ry
     PV energy                 =      -0.07968699 Ry
     correction to one-el term =     188.32851518 Ry

     iteration #  9     ecut=    50.00 Ry     beta= 0.70
     Davidson diagonalization with overlap
     ethr =  1.69E-05,  avg # of iterations =  1.0

     add environment contribution to local potential
     Polarization accuracy = 3.5E-12, # of iterations =  42

     total cpu time spent up to now is     1956.0 secs

     total energy              =   -3430.17383434 Ry
     estimated scf accuracy    <       0.06719032 Ry
     electrostatic embedding   =      -0.03358091 Ry
     cavitation energy         =       0.02145477 Ry
     PV energy                 =      -0.07958963 Ry
     correction to one-el term =     188.32951977 Ry

     iteration # 10     ecut=    50.00 Ry     beta= 0.70
     Davidson diagonalization with overlap
     ethr =  1.69E-05,  avg # of iterations =  1.0

     add environment contribution to local potential
     Polarization accuracy = 3.2E-12, # of iterations =  44

     total cpu time spent up to now is     2107.7 secs

     total energy              =   -3430.17543938 Ry
     estimated scf accuracy    <       0.02444343 Ry
     electrostatic embedding   =      -0.03968061 Ry
     cavitation energy         =       0.02160088 Ry
     PV energy                 =      -0.07923152 Ry
     correction to one-el term =     187.38785979 Ry

     iteration # 11     ecut=    50.00 Ry     beta= 0.70
     Davidson diagonalization with overlap
     ethr =  6.75E-06,  avg # of iterations =  2.0

     add environment contribution to local potential
     Polarization accuracy = 4.7E-12, # of iterations =  45

     total cpu time spent up to now is     2262.0 secs

     total energy              =   -3430.17915442 Ry
     estimated scf accuracy    <       0.00403175 Ry
     electrostatic embedding   =      -0.04826403 Ry
     cavitation energy         =       0.02158656 Ry
     PV energy                 =      -0.07900089 Ry
     correction to one-el term =     187.47665976 Ry

     iteration # 12     ecut=    50.00 Ry     beta= 0.70
     Davidson diagonalization with overlap
     ethr =  1.11E-06,  avg # of iterations =  2.0

     negative rho (up, down):  9.240E-04 0.000E+00

     add environment contribution to local potential
     Polarization accuracy = 3.9E-12, # of iterations =  46

     total cpu time spent up to now is     2413.8 secs

     total energy              =   -3430.17999305 Ry
     estimated scf accuracy    <       0.00393567 Ry
     electrostatic embedding   =      -0.05287105 Ry
     cavitation energy         =       0.02151041 Ry
     PV energy                 =      -0.07898920 Ry
     correction to one-el term =     187.96241227 Ry

     iteration # 13     ecut=    50.00 Ry     beta= 0.70
     Davidson diagonalization with overlap
     ethr =  1.09E-06,  avg # of iterations =  3.0

     negative rho (up, down):  5.552E-04 0.000E+00

     add environment contribution to local potential
     Polarization accuracy = 8.0E-12, # of iterations =  44

     total cpu time spent up to now is     2569.4 secs

     total energy              =   -3430.18084490 Ry
     estimated scf accuracy    <       0.00624600 Ry
     electrostatic embedding   =      -0.06034076 Ry
     cavitation energy         =       0.02149080 Ry
     PV energy                 =      -0.07888873 Ry
     correction to one-el term =     188.02944455 Ry

     iteration # 14     ecut=    50.00 Ry     beta= 0.70
     Davidson diagonalization with overlap
     ethr =  1.09E-06,  avg # of iterations =  2.0

     negative rho (up, down):  1.463E-04 0.000E+00

     add environment contribution to local potential
     Polarization accuracy = 4.5E-12, # of iterations =  44

     total cpu time spent up to now is     2720.4 secs

     total energy              =   -3430.18104413 Ry
     estimated scf accuracy    <       0.00444398 Ry
     electrostatic embedding   =      -0.06285807 Ry
     cavitation energy         =       0.02136934 Ry
     PV energy                 =      -0.07901754 Ry
     correction to one-el term =     188.76710264 Ry

     iteration # 15     ecut=    50.00 Ry     beta= 0.70
     Davidson diagonalization with overlap
     ethr =  1.09E-06,  avg # of iterations =  2.0

     negative rho (up, down):  1.574E-08 0.000E+00

     add environment contribution to local potential
     Polarization accuracy = 8.4E-12, # of iterations =  44

     total cpu time spent up to now is     2897.0 secs

     total energy              =   -3430.18091968 Ry
     estimated scf accuracy    <       0.00319071 Ry
     electrostatic embedding   =      -0.06372685 Ry
     cavitation energy         =       0.02132076 Ry
     PV energy                 =      -0.07908212 Ry
     correction to one-el term =     189.17761432 Ry

     iteration # 16     ecut=    50.00 Ry     beta= 0.70
     Davidson diagonalization with overlap
     ethr =  8.81E-07,  avg # of iterations =  1.0

     negative rho (up, down):  6.207E-04 0.000E+00

     add environment contribution to local potential
     Polarization accuracy = 3.3E-12, # of iterations =  44

     total cpu time spent up to now is     3046.6 secs

     total energy              =   -3430.18107158 Ry
     estimated scf accuracy    <       0.00116670 Ry
     electrostatic embedding   =      -0.06152270 Ry
     cavitation energy         =       0.02128044 Ry
     PV energy                 =      -0.07917688 Ry
     correction to one-el term =     189.61280945 Ry

     iteration # 17     ecut=    50.00 Ry     beta= 0.70
     Davidson diagonalization with overlap
     ethr =  3.22E-07,  avg # of iterations =  1.0

     negative rho (up, down):  3.558E-04 0.000E+00

     add environment contribution to local potential
     Polarization accuracy = 5.3E-12, # of iterations =  43

     total cpu time spent up to now is     3210.4 secs

     total energy              =   -3430.18120074 Ry
     estimated scf accuracy    <       0.00005834 Ry
     electrostatic embedding   =      -0.06003720 Ry
     cavitation energy         =       0.02122787 Ry
     PV energy                 =      -0.07926920 Ry
     correction to one-el term =     190.14875485 Ry

     iteration # 18     ecut=    50.00 Ry     beta= 0.70
     Davidson diagonalization with overlap
     ethr =  1.61E-08,  avg # of iterations =  4.0

     negative rho (up, down):  5.592E-04 0.000E+00

     add environment contribution to local potential
     Polarization accuracy = 3.6E-12, # of iterations =  43

     total cpu time spent up to now is     3377.4 secs

     total energy              =   -3430.18124323 Ry
     estimated scf accuracy    <       0.00001357 Ry
     electrostatic embedding   =      -0.05834074 Ry
     cavitation energy         =       0.02124218 Ry
     PV energy                 =      -0.07923015 Ry
     correction to one-el term =     190.28585659 Ry

     iteration # 19     ecut=    50.00 Ry     beta= 0.70
     Davidson diagonalization with overlap
     ethr =  3.75E-09,  avg # of iterations =  2.0

     negative rho (up, down):  2.788E-04 0.000E+00

     add environment contribution to local potential
     Polarization accuracy = 5.8E-12, # of iterations =  44

     total cpu time spent up to now is     3526.5 secs

     total energy              =   -3430.18124664 Ry
     estimated scf accuracy    <       0.00000672 Ry
     electrostatic embedding   =      -0.05812055 Ry
     cavitation energy         =       0.02124148 Ry
     PV energy                 =      -0.07922221 Ry
     correction to one-el term =     190.34439354 Ry

     iteration # 20     ecut=    50.00 Ry     beta= 0.70
     Davidson diagonalization with overlap
     ethr =  1.86E-09,  avg # of iterations =  3.0

     negative rho (up, down):  7.128E-05 0.000E+00

     add environment contribution to local potential
     Polarization accuracy = 6.1E-12, # of iterations =  43

     total cpu time spent up to now is     3680.9 secs

     total energy              =   -3430.18125071 Ry
     estimated scf accuracy    <       0.00000321 Ry
     electrostatic embedding   =      -0.05762115 Ry
     cavitation energy         =       0.02124651 Ry
     PV energy                 =      -0.07920937 Ry
     correction to one-el term =     190.37222879 Ry

     iteration # 21     ecut=    50.00 Ry     beta= 0.70
     Davidson diagonalization with overlap
     ethr =  8.87E-10,  avg # of iterations =  4.0

     negative rho (up, down):  4.764E-05 0.000E+00

     add environment contribution to local potential
     Polarization accuracy = 5.9E-12, # of iterations =  43

     total cpu time spent up to now is     3826.0 secs

     total energy              =   -3430.18125458 Ry
     estimated scf accuracy    <       0.00000096 Ry
     electrostatic embedding   =      -0.05718050 Ry
     cavitation energy         =       0.02125150 Ry
     PV energy                 =      -0.07920165 Ry
     correction to one-el term =     190.37910447 Ry

     iteration # 22     ecut=    50.00 Ry     beta= 0.70
     Davidson diagonalization with overlap
     ethr =  2.66E-10,  avg # of iterations =  4.0

     negative rho (up, down):  6.416E-05 0.000E+00

     add environment contribution to local potential
     Polarization accuracy = 5.3E-12, # of iterations =  43

     total cpu time spent up to now is     3966.0 secs

     total energy              =   -3430.18125656 Ry
     estimated scf accuracy    <       0.00000050 Ry
     electrostatic embedding   =      -0.05667654 Ry
     cavitation energy         =       0.02125449 Ry
     PV energy                 =      -0.07919962 Ry
     correction to one-el term =     190.40483380 Ry

     iteration # 23     ecut=    50.00 Ry     beta= 0.70
     Davidson diagonalization with overlap
     ethr =  1.39E-10,  avg # of iterations =  4.0

     negative rho (up, down):  8.841E-05 0.000E+00

     add environment contribution to local potential
     Polarization accuracy = 3.7E-12, # of iterations =  43

     total cpu time spent up to now is     4120.2 secs

     total energy              =   -3430.18125736 Ry
     estimated scf accuracy    <       0.00000031 Ry
     electrostatic embedding   =      -0.05651057 Ry
     cavitation energy         =       0.02125522 Ry
     PV energy                 =      -0.07919902 Ry
     correction to one-el term =     190.42098974 Ry

     iteration # 24     ecut=    50.00 Ry     beta= 0.70
     Davidson diagonalization with overlap
     ethr =  8.65E-11,  avg # of iterations =  3.0

     negative rho (up, down):  1.374E-04 0.000E+00

     add environment contribution to local potential
     Polarization accuracy = 2.4E-12, # of iterations =  43

     total cpu time spent up to now is     4282.0 secs

     total energy              =   -3430.18125774 Ry
     estimated scf accuracy    <       0.00000016 Ry
     electrostatic embedding   =      -0.05638637 Ry
     cavitation energy         =       0.02125549 Ry
     PV energy                 =      -0.07920093 Ry
     correction to one-el term =     190.43551105 Ry

     iteration # 25     ecut=    50.00 Ry     beta= 0.70
     Davidson diagonalization with overlap
     ethr =  4.52E-11,  avg # of iterations =  4.0

     negative rho (up, down):  1.593E-04 0.000E+00

     add environment contribution to local potential
     Polarization accuracy = 5.8E-12, # of iterations =  43

     total cpu time spent up to now is     4425.2 secs

     total energy              =   -3430.18125784 Ry
     estimated scf accuracy    <       0.00000011 Ry
     electrostatic embedding   =      -0.05626282 Ry
     cavitation energy         =       0.02125525 Ry
     PV energy                 =      -0.07920293 Ry
     correction to one-el term =     190.45359023 Ry

     iteration # 26     ecut=    50.00 Ry     beta= 0.70
     Davidson diagonalization with overlap
     ethr =  2.97E-11,  avg # of iterations =  2.0

     negative rho (up, down):  1.748E-04 0.000E+00

     add environment contribution to local potential
     Polarization accuracy = 3.5E-12, # of iterations =  43

     total cpu time spent up to now is     4578.7 secs

     total energy              =   -3430.18125807 Ry
     estimated scf accuracy    <       0.00000008 Ry
     electrostatic embedding   =      -0.05627600 Ry
     cavitation energy         =       0.02125484 Ry
     PV energy                 =      -0.07920368 Ry
     correction to one-el term =     190.45645937 Ry

     iteration # 27     ecut=    50.00 Ry     beta= 0.70
     Davidson diagonalization with overlap
     ethr =  2.10E-11,  avg # of iterations =  3.0

     negative rho (up, down):  1.720E-04 0.000E+00

     add environment contribution to local potential
     Polarization accuracy = 5.7E-12, # of iterations =  43

     total cpu time spent up to now is     4738.8 secs

     total energy              =   -3430.18125831 Ry
     estimated scf accuracy    <       0.00000008 Ry
     electrostatic embedding   =      -0.05623594 Ry
     cavitation energy         =       0.02125475 Ry
     PV energy                 =      -0.07920427 Ry
     correction to one-el term =     190.46230432 Ry

     iteration # 28     ecut=    50.00 Ry     beta= 0.70
     Davidson diagonalization with overlap
     ethr =  2.10E-11,  avg # of iterations =  2.0

     negative rho (up, down):  1.806E-04 0.000E+00

     add environment contribution to local potential
     Polarization accuracy = 5.6E-12, # of iterations =  43

     total cpu time spent up to now is     4893.2 secs

     total energy              =   -3430.18125839 Ry
     estimated scf accuracy    <       0.00000006 Ry
     electrostatic embedding   =      -0.05624676 Ry
     cavitation energy         =       0.02125471 Ry
     PV energy                 =      -0.07920411 Ry
     correction to one-el term =     190.46138733 Ry

     iteration # 29     ecut=    50.00 Ry     beta= 0.70
     Davidson diagonalization with overlap
     ethr =  1.75E-11,  avg # of iterations =  2.0

     negative rho (up, down):  1.665E-04 0.000E+00

     add environment contribution to local potential
     Polarization accuracy = 4.7E-12, # of iterations =  43

     total cpu time spent up to now is     5030.1 secs

     total energy              =   -3430.18125925 Ry
     estimated scf accuracy    <       0.00000006 Ry
     electrostatic embedding   =      -0.05625671 Ry
     cavitation energy         =       0.02125439 Ry
     PV energy                 =      -0.07920424 Ry
     correction to one-el term =     190.46307518 Ry

     iteration # 30     ecut=    50.00 Ry     beta= 0.70
     Davidson diagonalization with overlap
     ethr =  1.62E-11,  avg # of iterations =  2.0

     negative rho (up, down):  1.669E-04 0.000E+00

     add environment contribution to local potential
     Polarization accuracy = 5.7E-12, # of iterations =  43

     total cpu time spent up to now is     5180.0 secs

     total energy              =   -3430.18126164 Ry
     estimated scf accuracy    <       0.00000005 Ry
     electrostatic embedding   =      -0.05623818 Ry
     cavitation energy         =       0.02125440 Ry
     PV energy                 =      -0.07920329 Ry
     correction to one-el term =     190.46396777 Ry

     iteration # 31     ecut=    50.00 Ry     beta= 0.70
     Davidson diagonalization with overlap
     ethr =  1.45E-11,  avg # of iterations =  2.0

     negative rho (up, down):  1.720E-04 0.000E+00

     add environment contribution to local potential
     Polarization accuracy = 5.6E-12, # of iterations =  43

     total cpu time spent up to now is     5331.4 secs

     total energy              =   -3430.18126516 Ry
     estimated scf accuracy    <       0.00000004 Ry
     electrostatic embedding   =      -0.05624960 Ry
     cavitation energy         =       0.02125425 Ry
     PV energy                 =      -0.07920295 Ry
     correction to one-el term =     190.46362686 Ry

     iteration # 32     ecut=    50.00 Ry     beta= 0.70
     Davidson diagonalization with overlap
     ethr =  1.12E-11,  avg # of iterations =  5.0

     negative rho (up, down):  1.776E-04 0.000E+00

     add environment contribution to local potential
     Polarization accuracy = 5.3E-12, # of iterations =  44

     total cpu time spent up to now is     5486.2 secs

     total energy              =   -3430.18127016 Ry
     estimated scf accuracy    <       0.00000002 Ry
     electrostatic embedding   =      -0.05622941 Ry
     cavitation energy         =       0.02125439 Ry
     PV energy                 =      -0.07920282 Ry
     correction to one-el term =     190.46481082 Ry

     iteration # 33     ecut=    50.00 Ry     beta= 0.70
     Davidson diagonalization with overlap
     ethr =  4.60E-12,  avg # of iterations =  5.0

     negative rho (up, down):  1.882E-04 0.000E+00

     add environment contribution to local potential
     Polarization accuracy = 5.3E-12, # of iterations =  43

     total cpu time spent up to now is     5631.9 secs

     total energy              =   -3430.18127461 Ry
     estimated scf accuracy    <          8.9E-09 Ry
     electrostatic embedding   =      -0.05624435 Ry
     cavitation energy         =       0.02125448 Ry
     PV energy                 =      -0.07920314 Ry
     correction to one-el term =     190.46289519 Ry

     iteration # 34     ecut=    50.00 Ry     beta= 0.70
     Davidson diagonalization with overlap
     ethr =  2.47E-12,  avg # of iterations =  2.0

     negative rho (up, down):  1.882E-04 0.000E+00

     add environment contribution to local potential
     Polarization accuracy = 5.7E-12, # of iterations =  43

     total cpu time spent up to now is     5773.6 secs

     total energy              =   -3430.18127591 Ry
     estimated scf accuracy    <          3.8E-09 Ry
     electrostatic embedding   =      -0.05624508 Ry
     cavitation energy         =       0.02125451 Ry
     PV energy                 =      -0.07920380 Ry
     correction to one-el term =     190.46346102 Ry

     iteration # 35     ecut=    50.00 Ry     beta= 0.70
     Davidson diagonalization with overlap
     ethr =  1.06E-12,  avg # of iterations =  5.0

     negative rho (up, down):  1.865E-04 0.000E+00

     add environment contribution to local potential
     Polarization accuracy = 5.5E-12, # of iterations =  43

     total cpu time spent up to now is     5928.9 secs

     total energy              =   -3430.18127669 Ry
     estimated scf accuracy    <          2.9E-09 Ry
     electrostatic embedding   =      -0.05625337 Ry
     cavitation energy         =       0.02125449 Ry
     PV energy                 =      -0.07920409 Ry
     correction to one-el term =     190.46294917 Ry

     iteration # 36     ecut=    50.00 Ry     beta= 0.70
     Davidson diagonalization with overlap
     ethr =  8.08E-13,  avg # of iterations =  3.0

     negative rho (up, down):  1.698E-04 0.000E+00

     the potential shift due to the Gaussian-smeared nuclei is    -1.3150 ev

     total cpu time spent up to now is     6079.0 secs

     End of self-consistent calculation

          k = 0.2500 0.2666 0.0000 ( 35123 PWs)   bands (ev):

   -78.9257 -78.9143 -78.8745 -78.8631 -78.2383 -78.2333 -78.2274 -78.2224
   -77.9582 -77.8861 -77.8819 -77.8642 -49.4327 -49.4214 -49.4120 -49.4007
   -48.8873 -48.8759 -48.7811 -48.7697 -48.5212 -48.5099 -48.4798 -48.4687
   -48.4580 -48.4469 -48.4300 -48.4188 -48.2564 -48.2452 -48.1971 -48.1862
   -48.1819 -48.1580 -48.1472 -48.1019 -48.0623 -48.0495 -48.0469 -48.0378
   -47.9634 -47.8488 -47.8242 -47.7691 -47.7381 -47.7112 -47.6975 -47.6790
   -24.4890 -24.3627 -24.1477 -23.9904 -23.9573 -23.9014 -23.8364 -23.6963
   -23.6147 -23.4315 -23.3769 -23.3122 -23.2915 -23.2160 -23.1370 -23.0783
   -23.0207 -22.9999 -22.9720 -22.9212 -22.8683 -22.8201 -22.5851 -22.4971
   -22.4390 -22.3731 -22.3368 -22.2068 -12.6506 -12.6331 -12.5504 -12.4106
   -12.2677 -12.0325 -11.9854 -11.8444 -11.8104 -11.7807 -11.7747 -11.6915
   -11.6796 -11.5234 -11.4263 -11.4112 -11.3953 -11.2647 -11.1780 -11.1616
   -11.1487 -11.1292 -10.9055 -10.8011 -10.6794 -10.6064 -10.5005 -10.4111
   -10.2668 -10.1687 -10.0906 -10.0216  -9.9836  -9.9421  -9.8981  -9.7284
    -9.6950  -9.6410  -9.5647  -9.5409  -9.4206  -9.3790  -9.3615  -9.2195
    -9.0689  -8.9931  -8.9512  -8.9070  -8.8478  -8.7855  -8.7051  -8.6708
    -8.6560  -8.6282  -8.6121  -8.5322  -8.4775  -8.3939  -8.3370  -8.2221
    -8.1881  -8.1806  -8.0711  -7.9879  -7.9009  -7.7855  -7.7731  -7.6450
    -7.5751  -7.5014  -7.4217  -7.3819  -7.2739  -7.2211  -7.2000  -7.0862
    -7.0387  -6.9814  -6.9157  -6.8776  -6.8055  -6.7371  -6.6556  -6.4436
    -5.8001  -5.7810  -5.5172  -5.5131  -5.4259  -5.3911  -5.3300  -5.2868
    -5.2503  -5.1983  -5.1865  -5.1423  -5.0962  -5.0351  -4.9504  -4.8436
    -4.8352  -4.7474  -4.7005  -4.6079  -4.6024  -4.4736  -4.3483  -4.2429
    -4.2112  -4.1170  -4.0202  -4.0016  -3.8718  -3.7353  -3.7041  -3.6916
    -3.6430  -3.6402  -3.3898  -3.2648  -2.6086  -2.5288  -2.4842  -2.0856
    -2.0572  -1.9845  -1.5154  -1.0662  -1.0294  -0.9523  -0.8706  -0.6994
    -0.6441  -0.5313  -0.4514  -0.4009  -0.2111  -0.1187  -0.0234   0.1036
     0.2344

     the Fermi energy is    -4.5107 ev

!    total energy              =   -3430.18127711 Ry
     estimated scf accuracy    <          8.7E-10 Ry
     smearing contrib. (-TS)   =       0.03390934 Ry
     internal energy E=F+TS    =   -3430.21518645 Ry

     The total energy is F=E-TS. E is the sum of the following terms:
     one-electron contribution =  -25505.25758852 Ry
     hartree contribution      =   12727.19833343 Ry
     xc contribution           =    -444.44371343 Ry
     ewald contribution        =    9868.53965240 Ry
     one-center paw contrib.   =    -266.60014774 Ry
     electrostatic embedding   =      -0.05625867 Ry
     cavitation energy         =       0.02125448 Ry
     PV energy                 =      -0.07920428 Ry
     correction to one-el term =     190.46248588 Ry

     WARNING: you are using the parabolic pbc correction;
              the potential shift above must be added to 
              band and Fermi energies.

     convergence has been achieved in  36 iterations

     negative rho (up, down):  1.698E-04 0.000E+00

     Forces acting on atoms (cartesian axes, Ry/au):

     atom    1 type  1   force =     0.00000000    0.00055194    0.00035020
     atom    2 type  1   force =     0.00000000    0.00020780   -0.00106506
     atom    3 type  1   force =     0.00000000    0.00048433    0.00084356
     atom    4 type  1   force =     0.00000000   -0.00023258    0.00044253
     atom    5 type  2   force =    -0.00012018    0.00003441   -0.00004937
     atom    6 type  2   force =     0.00012018    0.00003441   -0.00004937
     atom    7 type  1   force =     0.00000134    0.00020819   -0.00095793
     atom    8 type  1   force =    -0.00000134    0.00020819   -0.00095793
     atom    9 type  2   force =     0.00000000    0.00015998    0.00064567
     atom   10 type  2   force =     0.00000000    0.00001368   -0.00068902
     atom   11 type  1   force =     0.00034013   -0.00002792   -0.00117948
     atom   12 type  1   force =    -0.00034013   -0.00002792   -0.00117948
     atom   13 type  1   force =     0.00000000    0.00035275   -0.00133018
     atom   14 type  1   force =     0.00000000   -0.00001089   -0.00028614
     atom   15 type  1   force =     0.00000000    0.00007607   -0.00033109
     atom   16 type  1   force =     0.00000000    0.00033006    0.00180821
     atom   17 type  2   force =     0.00000000    0.00020761    0.00000000
     atom   18 type  2   force =     0.00000000    0.00003487    0.00000000
     atom   19 type  1   force =     0.00135507   -0.00013973    0.00000000
     atom   20 type  1   force =    -0.00135507   -0.00013973    0.00000000
     atom   21 type  2   force =    -0.00005356    0.00015837    0.00000000
     atom   22 type  2   force =     0.00005356    0.00015837    0.00000000
     atom   23 type  1   force =     0.00128908    0.00037514    0.00000000
     atom   24 type  1   force =    -0.00128908    0.00037514    0.00000000
     atom   25 type  1   force =     0.00000000    0.00007607    0.00033109
     atom   26 type  1   force =     0.00000000    0.00033006   -0.00180821
     atom   27 type  1   force =     0.00000000    0.00035275    0.00133018
     atom   28 type  1   force =     0.00000000   -0.00001089    0.00028614
     atom   29 type  2   force =    -0.00012018    0.00003441    0.00004937
     atom   30 type  2   force =     0.00012018    0.00003441    0.00004937
     atom   31 type  1   force =     0.00000134    0.00020819    0.00095793
     atom   32 type  1   force =    -0.00000134    0.00020819    0.00095793
     atom   33 type  2   force =     0.00000000    0.00015998   -0.00064567
     atom   34 type  2   force =     0.00000000    0.00001368    0.00068902
     atom   35 type  1   force =     0.00034013   -0.00002792    0.00117948
     atom   36 type  1   force =    -0.00034013   -0.00002792    0.00117948
     atom   37 type  1   force =     0.00000000    0.00048433   -0.00084356
     atom   38 type  1   force =     0.00000000   -0.00023258   -0.00044253
     atom   39 type  1   force =     0.00000000    0.00055194   -0.00035020
     atom   40 type  1   force =     0.00000000    0.00020780    0.00106506
     atom   41 type  3   force =     0.00000000   -0.00287751    0.00022172
     atom   42 type  3   force =     0.00000000   -0.00287751   -0.00022172
     The non-local contrib.  to forces
     atom    1 type  1   force =     0.00000000   -0.01564119    1.32690897
     atom    2 type  1   force =     0.00000000    0.01062742    1.33248717
     atom    3 type  1   force =     0.00000000    0.81983558   -0.73311506
     atom    4 type  1   force =     0.00000000    0.02085470    1.11317018
     atom    5 type  2   force =     0.04584956    0.00157090   -0.02090838
     atom    6 type  2   force =    -0.04584956    0.00157090   -0.02090838
     atom    7 type  1   force =     0.01775525   -0.00384241   -0.16886018
     atom    8 type  1   force =    -0.01775525   -0.00384241   -0.16886018
     atom    9 type  2   force =     0.00000000    0.00036290   -0.08233842
     atom   10 type  2   force =     0.00000000   -0.00292009   -0.07603389
     atom   11 type  1   force =     0.02129209   -0.00978938   -0.16847588
     atom   12 type  1   force =    -0.02129209   -0.00978938   -0.16847588
     atom   13 type  1   force =     0.00000000    0.00087080    0.11444596
     atom   14 type  1   force =     0.00000000    0.02360513   -0.06662545
     atom   15 type  1   force =     0.00000000   -0.00290105    0.19423511
     atom   16 type  1   force =     0.00000000    0.00148997    0.21771450
     atom   17 type  2   force =     0.00000000   -0.00091996    0.00000000
     atom   18 type  2   force =     0.00000000   -0.00117290    0.00000000
     atom   19 type  1   force =     0.00635424    0.03857860    0.00000000
     atom   20 type  1   force =    -0.00635424    0.03857860    0.00000000
     atom   21 type  2   force =    -0.00022657    0.00105880    0.00000000
     atom   22 type  2   force =     0.00022657    0.00105880    0.00000000
     atom   23 type  1   force =     0.00150908   -0.03486404    0.00000000
     atom   24 type  1   force =    -0.00150908   -0.03486404    0.00000000
     atom   25 type  1   force =     0.00000000   -0.00290105   -0.19423511
     atom   26 type  1   force =     0.00000000    0.00148997   -0.21771450
     atom   27 type  1   force =     0.00000000    0.00087080   -0.11444596
     atom   28 type  1   force =     0.00000000    0.02360513    0.06662545
     atom   29 type  2   force =     0.04584956    0.00157090    0.02090838
     atom   30 type  2   force =    -0.04584956    0.00157090    0.02090838
     atom   31 type  1   force =     0.01775525   -0.00384241    0.16886018
     atom   32 type  1   force =    -0.01775525   -0.00384241    0.16886018
     atom   33 type  2   force =     0.00000000    0.00036290    0.08233842
     atom   34 type  2   force =     0.00000000   -0.00292009    0.07603389
     atom   35 type  1   force =     0.02129209   -0.00978938    0.16847588
     atom   36 type  1   force =    -0.02129209   -0.00978938    0.16847588
     atom   37 type  1   force =     0.00000000    0.81983558    0.73311506
     atom   38 type  1   force =     0.00000000    0.02085470   -1.11317018
     atom   39 type  1   force =     0.00000000   -0.01564119   -1.32690897
     atom   40 type  1   force =     0.00000000    0.01062742   -1.33248717
     atom   41 type  3   force =     0.00000000   -0.04345943    0.10254720
     atom   42 type  3   force =     0.00000000   -0.04345943   -0.10254720
     The ionic contribution  to forces
     atom    1 type  1   force =    -0.00000000    0.16527663 -101.18747647
     atom    2 type  1   force =     0.00000000   -0.05958606 -101.49434823
     atom    3 type  1   force =    -0.00000000   -1.38079544  -90.62496266
     atom    4 type  1   force =     0.00000000   -0.09534790  -94.93117386
     atom    5 type  2   force =    -3.37739102   -0.01920529 -173.05172280
     atom    6 type  2   force =     3.37739102   -0.01920529 -173.05172280
     atom    7 type  1   force =    -0.37859487   -0.82395356  -61.64778741
     atom    8 type  1   force =     0.37859487   -0.82395356  -61.64778741
     atom    9 type  2   force =    -0.00000000    0.22685858 -172.18382977
     atom   10 type  2   force =     0.00000000    0.08478359 -173.12765887
     atom   11 type  1   force =    -0.41116595    0.87316124  -61.59034363
     atom   12 type  1   force =     0.41116595    0.87316124  -61.59034363
     atom   13 type  1   force =     0.00000000   -0.00793693  -39.26814524
     atom   14 type  1   force =     0.00000000   -0.03072576  -37.39792312
     atom   15 type  1   force =     0.00000000   -0.01423491  -26.94921011
     atom   16 type  1   force =    -0.00000000   -0.01505310  -27.12352252
     atom   17 type  2   force =    -0.00000000   -0.11363609   -0.00043971
     atom   18 type  2   force =    -0.00000000   -0.06626480   -0.00044328
     atom   19 type  1   force =    -0.14967851    1.12497608   -0.00007675
     atom   20 type  1   force =     0.14967851    1.12497608   -0.00007675
     atom   21 type  2   force =    -0.29243144   -0.00381194   -0.00023798
     atom   22 type  2   force =     0.29243144   -0.00381194   -0.00023798
     atom   23 type  1   force =    -0.07534855   -1.12527776   -0.00007618
     atom   24 type  1   force =     0.07534855   -1.12527776   -0.00007618
     atom   25 type  1   force =     0.00000000   -0.01423398   26.94901506
     atom   26 type  1   force =    -0.00000000   -0.01505284   27.12333054
     atom   27 type  1   force =     0.00000000   -0.00793570   39.26845523
     atom   28 type  1   force =     0.00000000   -0.03072516   37.39824508
     atom   29 type  2   force =    -3.37733442   -0.01921096  173.05197248
     atom   30 type  2   force =     3.37733442   -0.01921096  173.05197248
     atom   31 type  1   force =    -0.37859272   -0.82398005   61.64785369
     atom   32 type  1   force =     0.37859272   -0.82398005   61.64785369
     atom   33 type  2   force =    -0.00000000    0.22686314  172.18397331
     atom   34 type  2   force =     0.00000000    0.08478505  173.12780000
     atom   35 type  1   force =    -0.41116465    0.87318906   61.59041093
     atom   36 type  1   force =     0.41116465    0.87318906   61.59041093
     atom   37 type  1   force =    -0.00000000   -1.38096873   90.62480550
     atom   38 type  1   force =    -0.00000000   -0.09534658   94.93130134
     atom   39 type  1   force =    -0.00000000    0.16527718  101.18753373
     atom   40 type  1   force =    -0.00000000   -0.05958585  101.49440462
     atom   41 type  3   force =    -0.00000000    1.16081854  -18.07211498
     atom   42 type  3   force =     0.00000000    1.16099347   18.07239973
     The local contribution  to forces
     atom    1 type  1   force =    -0.00000000   -0.09570758   99.81836371
     atom    2 type  1   force =     0.00000000    0.06278849  100.08756143
     atom    3 type  1   force =    -0.00000000    0.51372681   91.46881923
     atom    4 type  1   force =    -0.00000000    0.06287403   93.78984506
     atom    5 type  2   force =     3.38485854   -0.00480829  173.10632015
     atom    6 type  2   force =    -3.38485854   -0.00480829  173.10632015
     atom    7 type  1   force =     0.37669354    0.84389193   61.81519859
     atom    8 type  1   force =    -0.37669354    0.84389193   61.81519859
     atom    9 type  2   force =    -0.00000000   -0.19670699  172.24995664
     atom   10 type  2   force =     0.00000000   -0.06797841  173.13268760
     atom   11 type  1   force =     0.40120771   -0.87303243   61.74380665
     atom   12 type  1   force =    -0.40120771   -0.87303243   61.74380665
     atom   13 type  1   force =     0.00000000    0.00444961   39.16204685
     atom   14 type  1   force =     0.00000000    0.00559394   37.46078722
     atom   15 type  1   force =     0.00000000    0.01853977   26.75605839
     atom   16 type  1   force =    -0.00000000    0.01487519   26.90572318
     atom   17 type  2   force =    -0.00000000    0.11287501   -0.00586407
     atom   18 type  2   force =     0.00000000    0.06599540   -0.00584551
     atom   19 type  1   force =     0.14630884   -1.16291382   -0.00245490
     atom   20 type  1   force =    -0.14630884   -1.16291382   -0.00245490
     atom   21 type  2   force =     0.29621608    0.00458655   -0.00604201
     atom   22 type  2   force =    -0.29621608    0.00458655   -0.00604201
     atom   23 type  1   force =     0.07659082    1.15930036   -0.00245530
     atom   24 type  1   force =    -0.07659082    1.15930036   -0.00245530
     atom   25 type  1   force =    -0.00000000    0.01854268  -26.75785521
     atom   26 type  1   force =    -0.00000000    0.01487836  -26.90752155
     atom   27 type  1   force =     0.00000000    0.00445342  -39.16381251
     atom   28 type  1   force =     0.00000000    0.00559479  -37.46253464
     atom   29 type  2   force =     3.38486463   -0.00480275 -173.11240011
     atom   30 type  2   force =    -3.38486463   -0.00480275 -173.11240011
     atom   31 type  1   force =     0.37669434    0.84391496  -61.81763869
     atom   32 type  1   force =    -0.37669434    0.84391496  -61.81763869
     atom   33 type  2   force =    -0.00000000   -0.19670846 -172.25571078
     atom   34 type  2   force =    -0.00000000   -0.06798161 -173.13845715
     atom   35 type  1   force =     0.40120967   -0.87305599  -61.74624815
     atom   36 type  1   force =    -0.40120967   -0.87305599  -61.74624815
     atom   37 type  1   force =    -0.00000000    0.51380401  -91.47253411
     atom   38 type  1   force =     0.00000000    0.06286571  -93.79370777
     atom   39 type  1   force =     0.00000000   -0.09570951  -99.81974201
     atom   40 type  1   force =     0.00000000    0.06278271 -100.08893100
     atom   41 type  3   force =     0.00000000   -1.13614797   18.02891891
     atom   42 type  3   force =    -0.00000000   -1.13614797  -18.02891891
     The core correction contribution to forces
     atom    1 type  1   force =    -0.00000000    0.00015243   -0.01117619
     atom    2 type  1   force =     0.00000000   -0.00008666   -0.01116112
     atom    3 type  1   force =    -0.00000000   -0.00827409    0.00675880
     atom    4 type  1   force =    -0.00000000   -0.00024001   -0.01111028
     atom    5 type  2   force =     0.00000000    0.00000000    0.00000000
     atom    6 type  2   force =     0.00000000    0.00000000    0.00000000
     atom    7 type  1   force =    -0.00019363   -0.00043453    0.00176240
     atom    8 type  1   force =     0.00019363   -0.00043453    0.00176240
     atom    9 type  2   force =     0.00000000    0.00000000    0.00000000
     atom   10 type  2   force =     0.00000000    0.00000000    0.00000000
     atom   11 type  1   force =    -0.00022323    0.00057309    0.00174759
     atom   12 type  1   force =     0.00022323    0.00057309    0.00174759
     atom   13 type  1   force =     0.00000000   -0.00000757   -0.00103476
     atom   14 type  1   force =     0.00000000   -0.00030757    0.00065462
     atom   15 type  1   force =     0.00000000    0.00004414   -0.00234149
     atom   16 type  1   force =     0.00000000   -0.00000582   -0.00252295
     atom   17 type  2   force =     0.00000000    0.00000000    0.00000000
     atom   18 type  2   force =     0.00000000    0.00000000    0.00000000
     atom   19 type  1   force =    -0.00007711   -0.00006849   -0.00000201
     atom   20 type  1   force =     0.00007711   -0.00006849   -0.00000201
     atom   21 type  2   force =     0.00000000    0.00000000    0.00000000
     atom   22 type  2   force =     0.00000000    0.00000000    0.00000000
     atom   23 type  1   force =    -0.00003629    0.00002864   -0.00000201
     atom   24 type  1   force =     0.00003629    0.00002864   -0.00000201
     atom   25 type  1   force =    -0.00000000    0.00004416    0.00233942
     atom   26 type  1   force =     0.00000000   -0.00000579    0.00252089
     atom   27 type  1   force =    -0.00000000   -0.00000755    0.00103259
     atom   28 type  1   force =    -0.00000000   -0.00030760   -0.00065691
     atom   29 type  2   force =     0.00000000    0.00000000    0.00000000
     atom   30 type  2   force =     0.00000000    0.00000000    0.00000000
     atom   31 type  1   force =    -0.00019360   -0.00043453   -0.00176384
     atom   32 type  1   force =     0.00019360   -0.00043453   -0.00176384
     atom   33 type  2   force =     0.00000000    0.00000000    0.00000000
     atom   34 type  2   force =     0.00000000    0.00000000    0.00000000
     atom   35 type  1   force =    -0.00022319    0.00057311   -0.00174905
     atom   36 type  1   force =     0.00022319    0.00057311   -0.00174905
     atom   37 type  1   force =     0.00000000   -0.00827535   -0.00676393
     atom   38 type  1   force =     0.00000000   -0.00024019    0.01110619
     atom   39 type  1   force =     0.00000000    0.00015239    0.01117447
     atom   40 type  1   force =    -0.00000000   -0.00008670    0.01115939
     atom   41 type  3   force =     0.00000000    0.00000000    0.00000000
     atom   42 type  3   force =     0.00000000    0.00000000    0.00000000
     The Hubbard contrib.    to forces
     atom    1 type  1   force =     0.00000000    0.00000000    0.00000000
     atom    2 type  1   force =     0.00000000    0.00000000    0.00000000
     atom    3 type  1   force =     0.00000000    0.00000000    0.00000000
     atom    4 type  1   force =     0.00000000    0.00000000    0.00000000
     atom    5 type  2   force =     0.00000000    0.00000000    0.00000000
     atom    6 type  2   force =     0.00000000    0.00000000    0.00000000
     atom    7 type  1   force =     0.00000000    0.00000000    0.00000000
     atom    8 type  1   force =     0.00000000    0.00000000    0.00000000
     atom    9 type  2   force =     0.00000000    0.00000000    0.00000000
     atom   10 type  2   force =     0.00000000    0.00000000    0.00000000
     atom   11 type  1   force =     0.00000000    0.00000000    0.00000000
     atom   12 type  1   force =     0.00000000    0.00000000    0.00000000
     atom   13 type  1   force =     0.00000000    0.00000000    0.00000000
     atom   14 type  1   force =     0.00000000    0.00000000    0.00000000
     atom   15 type  1   force =     0.00000000    0.00000000    0.00000000
     atom   16 type  1   force =     0.00000000    0.00000000    0.00000000
     atom   17 type  2   force =     0.00000000    0.00000000    0.00000000
     atom   18 type  2   force =     0.00000000    0.00000000    0.00000000
     atom   19 type  1   force =     0.00000000    0.00000000    0.00000000
     atom   20 type  1   force =     0.00000000    0.00000000    0.00000000
     atom   21 type  2   force =     0.00000000    0.00000000    0.00000000
     atom   22 type  2   force =     0.00000000    0.00000000    0.00000000
     atom   23 type  1   force =     0.00000000    0.00000000    0.00000000
     atom   24 type  1   force =     0.00000000    0.00000000    0.00000000
     atom   25 type  1   force =     0.00000000    0.00000000    0.00000000
     atom   26 type  1   force =     0.00000000    0.00000000    0.00000000
     atom   27 type  1   force =     0.00000000    0.00000000    0.00000000
     atom   28 type  1   force =     0.00000000    0.00000000    0.00000000
     atom   29 type  2   force =     0.00000000    0.00000000    0.00000000
     atom   30 type  2   force =     0.00000000    0.00000000    0.00000000
     atom   31 type  1   force =     0.00000000    0.00000000    0.00000000
     atom   32 type  1   force =     0.00000000    0.00000000    0.00000000
     atom   33 type  2   force =     0.00000000    0.00000000    0.00000000
     atom   34 type  2   force =     0.00000000    0.00000000    0.00000000
     atom   35 type  1   force =     0.00000000    0.00000000    0.00000000
     atom   36 type  1   force =     0.00000000    0.00000000    0.00000000
     atom   37 type  1   force =     0.00000000    0.00000000    0.00000000
     atom   38 type  1   force =     0.00000000    0.00000000    0.00000000
     atom   39 type  1   force =     0.00000000    0.00000000    0.00000000
     atom   40 type  1   force =     0.00000000    0.00000000    0.00000000
     atom   41 type  3   force =     0.00000000    0.00000000    0.00000000
     atom   42 type  3   force =     0.00000000    0.00000000    0.00000000
     The SCF correction term to forces
     atom    1 type  1   force =     0.00000000   -0.00000793    0.00001692
     atom    2 type  1   force =    -0.00000000   -0.00000112    0.00001936
     atom    3 type  1   force =     0.00000000    0.00000666    0.00001658
     atom    4 type  1   force =    -0.00000000    0.00000159    0.00001385
     atom    5 type  2   force =    -0.00000152    0.00000785    0.00003955
     atom    6 type  2   force =     0.00000152    0.00000785    0.00003955
     atom    7 type  1   force =     0.00000066   -0.00000201    0.00001411
     atom    8 type  1   force =    -0.00000066   -0.00000201    0.00001411
     atom    9 type  2   force =    -0.00000000   -0.00001240    0.00005517
     atom   10 type  2   force =     0.00000000   -0.00000428    0.00004839
     atom   11 type  1   force =     0.00000334   -0.00000050    0.00001632
     atom   12 type  1   force =    -0.00000334   -0.00000050    0.00001632
     atom   13 type  1   force =    -0.00000000    0.00000193    0.00001250
     atom   14 type  1   force =     0.00000000    0.00000122    0.00001056
     atom   15 type  1   force =    -0.00000000   -0.00000127    0.00000978
     atom   16 type  1   force =     0.00000000   -0.00000058    0.00000710
     atom   17 type  2   force =    -0.00000000    0.00000199    0.00001650
     atom   18 type  2   force =     0.00000000    0.00000139    0.00001664
     atom   19 type  1   force =    -0.00000286    0.00000321    0.00000609
     atom   20 type  1   force =     0.00000286    0.00000321    0.00000609
     atom   21 type  2   force =     0.00000026   -0.00000176    0.00001620
     atom   22 type  2   force =    -0.00000026   -0.00000176    0.00001620
     atom   23 type  1   force =    -0.00000260   -0.00000269    0.00000609
     atom   24 type  1   force =     0.00000260   -0.00000269    0.00000609
     atom   25 type  1   force =    -0.00000000   -0.00000127    0.00000000
     atom   26 type  1   force =     0.00000000   -0.00000058    0.00000277
     atom   27 type  1   force =    -0.00000000    0.00000194   -0.00000597
     atom   28 type  1   force =     0.00000000    0.00000122   -0.00000400
     atom   29 type  2   force =    -0.00000128    0.00000785   -0.00004154
     atom   30 type  2   force =     0.00000128    0.00000785   -0.00004154
     atom   31 type  1   force =     0.00000077   -0.00000224   -0.00001433
     atom   32 type  1   force =    -0.00000077   -0.00000224   -0.00001433
     atom   33 type  2   force =    -0.00000000   -0.00001241   -0.00005837
     atom   34 type  2   force =     0.00000000   -0.00000429   -0.00005178
     atom   35 type  1   force =     0.00000345   -0.00000027   -0.00001652
     atom   36 type  1   force =    -0.00000345   -0.00000027   -0.00001652
     atom   37 type  1   force =    -0.00000000    0.00000664   -0.00002106
     atom   38 type  1   force =     0.00000000    0.00000159   -0.00001824
     atom   39 type  1   force =    -0.00000000   -0.00000792   -0.00002131
     atom   40 type  1   force =     0.00000000   -0.00000112   -0.00002382
     atom   41 type  3   force =     0.00000000    0.00000070    0.00000210
     atom   42 type  3   force =    -0.00000000    0.00000070   -0.00000271

     Total force =     0.007239     Total SCF correction =     0.000160

     BFGS Geometry Optimization
     Energy error            =      0.0E+00 Ry
     Gradient error          =      2.9E-03 Ry/Bohr

     number of scf cycles    =   1
     number of bfgs steps    =   0

     energy             new  =   -3430.1812771091 Ry

     new trust radius        =       0.0028860373 bohr
     new conv_thr            =       0.0000000010 Ry


ATOMIC_POSITIONS (crystal)
O             0.0000000000        0.5037426204        0.2750967554
O             0.5000000000        0.5010656742        0.2746721043
O             0.0000000000        0.0019214516        0.3018950495
O             0.5000000000        0.0017384514        0.3081516606
Ru            0.2564740023        0.0037466714        0.3570410976
Ru            0.7435259977        0.0037466714        0.3570410976
O             0.2492279665        0.3144749853        0.3599089366
O             0.7507720335        0.3144749853        0.3599089366
Ru            0.0000000000        0.5040501159        0.3527045537
Ru            0.5000000000        0.5033270325        0.3520897733
O             0.2502739769        0.6924268826        0.3600494426
O             0.7497260231        0.6924268826        0.3600494426
O             0.0000000000        0.0019374066        0.4124002083
O             0.5000000000        0.0023065476        0.4118048730
O             0.0000000000        0.5018684115        0.4451803604
O             0.5000000000        0.5009025675        0.4452000885
Ru            0.0000000000        0.0003364172        0.5000010000
Ru            0.5000000000        0.0015853784        0.5000010000
O             0.2493861402        0.1890203018        0.5000010000
O             0.7506138598        0.1890203018        0.5000010000
Ru            0.2505013036        0.5007815023        0.5000010000
Ru            0.7494986964        0.5007815023        0.5000010000
O             0.2503187177        0.8127421148        0.5000010000
O             0.7496812823        0.8127421148        0.5000010000
O             0.0000000000        0.5018684115        0.5548206396
O             0.5000000000        0.5009025675        0.5548009115
O             0.0000000000        0.0019374066        0.5876007917
O             0.5000000000        0.0023065476        0.5881961270
Ru            0.2564740023        0.0037466714        0.6429599024
Ru            0.7435259977        0.0037466714        0.6429599024
O             0.2492279665        0.3144749853        0.6400920634
O             0.7507720335        0.3144749853        0.6400920634
Ru            0.0000000000        0.5040501159        0.6472964463
Ru            0.5000000000        0.5033270325        0.6479112267
O             0.2502739769        0.6924268826        0.6399515574
O             0.7497260231        0.6924268826        0.6399515574
O             0.0000000000        0.0019214516        0.6981069505
O             0.5000000000        0.0017384514        0.6918503394
O             0.0000000000        0.5037426204        0.7249042446
O             0.5000000000        0.5010656742        0.7253288957
H             0.0000000000        0.0665548255        0.2613569109
H             0.0000000000        0.0665548255        0.7386430891



     Writing config-only to output data dir /storage/home/mgm6007/ixd4/Maria/Strain2_Files/RuO2-110-0-2/RuO2-110-0-2.save/
     NEW-OLD atomic charge density approx. for the potential

     Check: negative core charge=   -0.000001

     negative rho (up, down):  1.697E-04 0.000E+00

     add environment contribution to local potential
     Polarization accuracy = 2.1E-12, # of iterations =  43

     total cpu time spent up to now is     6238.6 secs

     per-process dynamical memory:   203.9 Mb

     Self-consistent Calculation

     iteration #  1     ecut=    50.00 Ry     beta= 0.70
     Davidson diagonalization with overlap
     ethr =  1.00E-06,  avg # of iterations =  2.0

     Threshold (ethr) on eigenvalues was too large:
     Diagonalizing with lowered threshold

     Davidson diagonalization with overlap
     ethr =  2.85E-09,  avg # of iterations =  3.0

     negative rho (up, down):  1.715E-04 0.000E+00

     add environment contribution to local potential
     Polarization accuracy = 2.1E-12, # of iterations =  43

     total cpu time spent up to now is     6387.2 secs

     total energy              =   -3430.18132081 Ry
     estimated scf accuracy    <       0.00001120 Ry
     electrostatic embedding   =      -0.05637926 Ry
     cavitation energy         =       0.02125784 Ry
     PV energy                 =      -0.07920238 Ry
     correction to one-el term =     190.44329807 Ry

     iteration #  2     ecut=    50.00 Ry     beta= 0.70
     Davidson diagonalization with overlap
     ethr =  3.09E-09,  avg # of iterations =  2.0

     negative rho (up, down):  1.698E-04 0.000E+00

     add environment contribution to local potential
     Polarization accuracy = 2.1E-12, # of iterations =  43

     total cpu time spent up to now is     6529.4 secs

     total energy              =   -3430.18132179 Ry
     estimated scf accuracy    <       0.00002298 Ry
     electrostatic embedding   =      -0.05635589 Ry
     cavitation energy         =       0.02125657 Ry
     PV energy                 =      -0.07920292 Ry
     correction to one-el term =     190.45068972 Ry

     iteration #  3     ecut=    50.00 Ry     beta= 0.70
     Davidson diagonalization with overlap
     ethr =  3.09E-09,  avg # of iterations =  1.0

     negative rho (up, down):  1.696E-04 0.000E+00

     add environment contribution to local potential
     Polarization accuracy = 1.9E-12, # of iterations =  44

     total cpu time spent up to now is     6682.2 secs

     total energy              =   -3430.18132309 Ry
     estimated scf accuracy    <       0.00000172 Ry
     electrostatic embedding   =      -0.05635031 Ry
     cavitation energy         =       0.02125617 Ry
     PV energy                 =      -0.07920351 Ry
     correction to one-el term =     190.44988750 Ry

     iteration #  4     ecut=    50.00 Ry     beta= 0.70
     Davidson diagonalization with overlap
     ethr =  4.75E-10,  avg # of iterations =  2.0

     negative rho (up, down):  1.696E-04 0.000E+00

     add environment contribution to local potential
     Polarization accuracy = 6.8E-12, # of iterations =  41

     total cpu time spent up to now is     6831.4 secs

     total energy              =   -3430.18132376 Ry
     estimated scf accuracy    <       0.00000150 Ry
     electrostatic embedding   =      -0.05634418 Ry
     cavitation energy         =       0.02125557 Ry
     PV energy                 =      -0.07920371 Ry
     correction to one-el term =     190.45168204 Ry

     iteration #  5     ecut=    50.00 Ry     beta= 0.70
     Davidson diagonalization with overlap
     ethr =  4.14E-10,  avg # of iterations =  2.0

     negative rho (up, down):  1.695E-04 0.000E+00

     add environment contribution to local potential
     Polarization accuracy = 1.8E-12, # of iterations =  43

     total cpu time spent up to now is     6978.3 secs

     total energy              =   -3430.18132416 Ry
     estimated scf accuracy    <       0.00000014 Ry
     electrostatic embedding   =      -0.05634237 Ry
     cavitation energy         =       0.02125523 Ry
     PV energy                 =      -0.07920371 Ry
     correction to one-el term =     190.45250660 Ry

     iteration #  6     ecut=    50.00 Ry     beta= 0.70
     Davidson diagonalization with overlap
     ethr =  3.84E-11,  avg # of iterations =  2.0

     negative rho (up, down):  1.693E-04 0.000E+00

     add environment contribution to local potential
     Polarization accuracy = 9.6E-12, # of iterations =  43

     total cpu time spent up to now is     7148.3 secs

     total energy              =   -3430.18132439 Ry
     estimated scf accuracy    <       0.00000005 Ry
     electrostatic embedding   =      -0.05634168 Ry
     cavitation energy         =       0.02125508 Ry
     PV energy                 =      -0.07920360 Ry
     correction to one-el term =     190.45269419 Ry

     iteration #  7     ecut=    50.00 Ry     beta= 0.70
     Davidson diagonalization with overlap
     ethr =  1.31E-11,  avg # of iterations =  2.0

     negative rho (up, down):  1.695E-04 0.000E+00

     add environment contribution to local potential
     Polarization accuracy = 1.8E-12, # of iterations =  43

     total cpu time spent up to now is     7285.6 secs

     total energy              =   -3430.18132452 Ry
     estimated scf accuracy    <       0.00000003 Ry
     electrostatic embedding   =      -0.05634061 Ry
     cavitation energy         =       0.02125503 Ry
     PV energy                 =      -0.07920352 Ry
     correction to one-el term =     190.45255582 Ry

     iteration #  8     ecut=    50.00 Ry     beta= 0.70
     Davidson diagonalization with overlap
     ethr =  8.72E-12,  avg # of iterations =  2.0

     negative rho (up, down):  1.698E-04 0.000E+00

     add environment contribution to local potential
     Polarization accuracy = 1.9E-12, # of iterations =  43

     total cpu time spent up to now is     7455.4 secs

     total energy              =   -3430.18132466 Ry
     estimated scf accuracy    <          3.9E-09 Ry
     electrostatic embedding   =      -0.05633827 Ry
     cavitation energy         =       0.02125497 Ry
     PV energy                 =      -0.07920341 Ry
     correction to one-el term =     190.45274699 Ry

     iteration #  9     ecut=    50.00 Ry     beta= 0.70
     Davidson diagonalization with overlap
     ethr =  1.07E-12,  avg # of iterations =  5.0

     negative rho (up, down):  1.701E-04 0.000E+00

     add environment contribution to local potential
     Polarization accuracy = 1.8E-12, # of iterations =  44

     total cpu time spent up to now is     7603.4 secs

     total energy              =   -3430.18132475 Ry
     estimated scf accuracy    <          1.4E-09 Ry
     electrostatic embedding   =      -0.05633464 Ry
     cavitation energy         =       0.02125493 Ry
     PV energy                 =      -0.07920335 Ry
     correction to one-el term =     190.45306606 Ry

     iteration # 10     ecut=    50.00 Ry     beta= 0.70
     Davidson diagonalization with overlap
     ethr =  3.83E-13,  avg # of iterations =  3.0

     negative rho (up, down):  1.697E-04 0.000E+00

     the potential shift due to the Gaussian-smeared nuclei is    -1.3150 ev

     total cpu time spent up to now is     7761.6 secs

     End of self-consistent calculation

          k = 0.2500 0.2666 0.0000 ( 35123 PWs)   bands (ev):

   -78.9251 -78.9136 -78.8733 -78.8618 -78.2389 -78.2339 -78.2278 -78.2228
   -77.9557 -77.8866 -77.8824 -77.8659 -49.4317 -49.4203 -49.4103 -49.3988
   -48.8868 -48.8753 -48.7802 -48.7687 -48.5209 -48.5094 -48.4796 -48.4683
   -48.4581 -48.4470 -48.4293 -48.4178 -48.2572 -48.2459 -48.1938 -48.1863
   -48.1820 -48.1588 -48.1479 -48.1031 -48.0629 -48.0502 -48.0476 -48.0383
   -47.9620 -47.8504 -47.8252 -47.7668 -47.7390 -47.7118 -47.6980 -47.6809
   -24.4893 -24.3630 -24.1481 -23.9928 -23.9599 -23.9010 -23.8361 -23.6964
   -23.6153 -23.4320 -23.3774 -23.3119 -23.2910 -23.2160 -23.1370 -23.0776
   -23.0202 -22.9995 -22.9713 -22.9212 -22.8675 -22.8199 -22.5846 -22.4964
   -22.4389 -22.3724 -22.3361 -22.2065 -12.6511 -12.6331 -12.5522 -12.4111
   -12.2709 -12.0324 -11.9855 -11.8440 -11.8103 -11.7802 -11.7741 -11.6916
   -11.6797 -11.5235 -11.4265 -11.4117 -11.3961 -11.2649 -11.1776 -11.1616
   -11.1486 -11.1296 -10.9053 -10.8014 -10.6788 -10.6058 -10.5001 -10.4114
   -10.2668 -10.1676 -10.0909 -10.0211  -9.9838  -9.9411  -9.8970  -9.7283
    -9.6949  -9.6408  -9.5647  -9.5409  -9.4201  -9.3792  -9.3618  -9.2195
    -9.0680  -8.9922  -8.9492  -8.9056  -8.8475  -8.7853  -8.7056  -8.6706
    -8.6558  -8.6281  -8.6121  -8.5319  -8.4778  -8.3934  -8.3371  -8.2220
    -8.1886  -8.1803  -8.0708  -7.9878  -7.9009  -7.7854  -7.7728  -7.6451
    -7.5746  -7.5012  -7.4216  -7.3829  -7.2729  -7.2205  -7.2000  -7.0865
    -7.0384  -6.9817  -6.9151  -6.8769  -6.8053  -6.7364  -6.6550  -6.4436
    -5.7992  -5.7801  -5.5179  -5.5128  -5.4258  -5.3906  -5.3304  -5.2869
    -5.2497  -5.1981  -5.1869  -5.1419  -5.0967  -5.0358  -4.9510  -4.8432
    -4.8355  -4.7472  -4.7003  -4.6076  -4.6030  -4.4738  -4.3483  -4.2432
    -4.2115  -4.1175  -4.0197  -4.0018  -3.8717  -3.7347  -3.7035  -3.6910
    -3.6430  -3.6401  -3.3899  -3.2649  -2.6082  -2.5283  -2.4840  -2.0849
    -2.0571  -1.9842  -1.5163  -1.0645  -1.0281  -0.9505  -0.8695  -0.6976
    -0.6427  -0.5320  -0.4516  -0.4009  -0.2100  -0.1196  -0.0233   0.1043
     0.2338

     the Fermi energy is    -4.5108 ev

!    total energy              =   -3430.18132478 Ry
     estimated scf accuracy    <          8.4E-10 Ry
     smearing contrib. (-TS)   =       0.03391289 Ry
     internal energy E=F+TS    =   -3430.21523766 Ry

     The total energy is F=E-TS. E is the sum of the following terms:
     one-electron contribution =  -25504.21575689 Ry
     hartree contribution      =   12726.68053434 Ry
     xc contribution           =    -444.44478187 Ry
     ewald contribution        =    9868.02567552 Ry
     one-center paw contrib.   =    -266.59999984 Ry
     electrostatic embedding   =      -0.05633143 Ry
     cavitation energy         =       0.02125491 Ry
     PV energy                 =      -0.07920336 Ry
     correction to one-el term =     190.45337098 Ry

     WARNING: you are using the parabolic pbc correction;
              the potential shift above must be added to 
              band and Fermi energies.

     convergence has been achieved in  10 iterations

     negative rho (up, down):  1.697E-04 0.000E+00

     Forces acting on atoms (cartesian axes, Ry/au):

     atom    1 type  1   force =     0.00000000    0.00054676    0.00045404
     atom    2 type  1   force =     0.00000000    0.00018747   -0.00072724
     atom    3 type  1   force =     0.00000000    0.00016065    0.00130596
     atom    4 type  1   force =     0.00000000   -0.00018398    0.00027078
     atom    5 type  2   force =    -0.00002519    0.00006394   -0.00003221
     atom    6 type  2   force =     0.00002519    0.00006394   -0.00003221
     atom    7 type  1   force =     0.00008391    0.00013013   -0.00081870
     atom    8 type  1   force =    -0.00008391    0.00013013   -0.00081870
     atom    9 type  2   force =     0.00000000    0.00011999    0.00016562
     atom   10 type  2   force =     0.00000000    0.00002199   -0.00096831
     atom   11 type  1   force =     0.00032675    0.00003784   -0.00099539
     atom   12 type  1   force =    -0.00032675    0.00003784   -0.00099539
     atom   13 type  1   force =     0.00000000    0.00030037   -0.00077205
     atom   14 type  1   force =     0.00000000    0.00001062   -0.00020156
     atom   15 type  1   force =     0.00000000    0.00009075   -0.00042740
     atom   16 type  1   force =     0.00000000    0.00029441    0.00135723
     atom   17 type  2   force =     0.00000000    0.00019448    0.00000000
     atom   18 type  2   force =     0.00000000    0.00006518    0.00000000
     atom   19 type  1   force =     0.00084644   -0.00003545    0.00000000
     atom   20 type  1   force =    -0.00084644   -0.00003545    0.00000000
     atom   21 type  2   force =    -0.00007355    0.00016128    0.00000000
     atom   22 type  2   force =     0.00007355    0.00016128    0.00000000
     atom   23 type  1   force =     0.00076031    0.00029515    0.00000000
     atom   24 type  1   force =    -0.00076031    0.00029515    0.00000000
     atom   25 type  1   force =     0.00000000    0.00009075    0.00042740
     atom   26 type  1   force =     0.00000000    0.00029441   -0.00135723
     atom   27 type  1   force =     0.00000000    0.00030037    0.00077205
     atom   28 type  1   force =     0.00000000    0.00001062    0.00020156
     atom   29 type  2   force =    -0.00002519    0.00006394    0.00003221
     atom   30 type  2   force =     0.00002519    0.00006394    0.00003221
     atom   31 type  1   force =     0.00008391    0.00013013    0.00081870
     atom   32 type  1   force =    -0.00008391    0.00013013    0.00081870
     atom   33 type  2   force =     0.00000000    0.00011999   -0.00016562
     atom   34 type  2   force =     0.00000000    0.00002199    0.00096831
     atom   35 type  1   force =     0.00032675    0.00003784    0.00099539
     atom   36 type  1   force =    -0.00032675    0.00003784    0.00099539
     atom   37 type  1   force =     0.00000000    0.00016065   -0.00130596
     atom   38 type  1   force =     0.00000000   -0.00018398   -0.00027078
     atom   39 type  1   force =     0.00000000    0.00054676   -0.00045404
     atom   40 type  1   force =     0.00000000    0.00018747    0.00072724
     atom   41 type  3   force =     0.00000000   -0.00256364   -0.00044542
     atom   42 type  3   force =     0.00000000   -0.00256364    0.00044542
     The non-local contrib.  to forces
     atom    1 type  1   force =     0.00000000   -0.01571475    1.32664165
     atom    2 type  1   force =     0.00000000    0.01050291    1.33282063
     atom    3 type  1   force =     0.00000000    0.81627172   -0.73483797
     atom    4 type  1   force =     0.00000000    0.02109722    1.11255922
     atom    5 type  2   force =     0.04594139    0.00156581   -0.02081039
     atom    6 type  2   force =    -0.04594139    0.00156581   -0.02081039
     atom    7 type  1   force =     0.01782906   -0.00372788   -0.16752951
     atom    8 type  1   force =    -0.01782906   -0.00372788   -0.16752951
     atom    9 type  2   force =     0.00000000    0.00043205   -0.08210454
     atom   10 type  2   force =     0.00000000   -0.00297196   -0.07560882
     atom   11 type  1   force =     0.02132889   -0.00977087   -0.16686293
     atom   12 type  1   force =    -0.02132889   -0.00977087   -0.16686293
     atom   13 type  1   force =     0.00000000    0.00060696    0.11421947
     atom   14 type  1   force =     0.00000000    0.02363789   -0.06643275
     atom   15 type  1   force =     0.00000000   -0.00273529    0.19347858
     atom   16 type  1   force =     0.00000000    0.00132524    0.21841927
     atom   17 type  2   force =     0.00000000   -0.00091629    0.00000000
     atom   18 type  2   force =     0.00000000   -0.00117938    0.00000000
     atom   19 type  1   force =     0.00606895    0.03863543    0.00000000
     atom   20 type  1   force =    -0.00606895    0.03863543    0.00000000
     atom   21 type  2   force =    -0.00001062    0.00103193    0.00000000
     atom   22 type  2   force =     0.00001062    0.00103193    0.00000000
[...]
     atom   28 type  1   force =     0.00000000    0.00734736   37.31057154
     atom   29 type  2   force =    -3.29222033    0.00840336  172.77183627
     atom   30 type  2   force =     3.29222033    0.00840336  172.77183627
     atom   31 type  1   force =    -0.42089003   -0.83345882   61.68171612
     atom   32 type  1   force =     0.42089003   -0.83345882   61.68171612
     atom   33 type  2   force =    -0.00000000   -0.01928722  172.07743881
     atom   34 type  2   force =    -0.00000000   -0.01764624  173.03011536
     atom   35 type  1   force =    -0.41987612    0.82713794   61.61394185
     atom   36 type  1   force =     0.41987612    0.82713794   61.61394185
     atom   37 type  1   force =     0.00000000    0.06249992   90.20859096
     atom   38 type  1   force =     0.00000000    0.00726051   94.91933209
     atom   39 type  1   force =    -0.00000000    0.00055578  101.13850911
     atom   40 type  1   force =    -0.00000000    0.01261526  101.41984810
     atom   41 type  3   force =     0.00000000   -0.04948779  -18.27000553
     atom   42 type  3   force =     0.00000000   -0.04949599   18.27037061
     The local contribution  to forces
     atom    1 type  1   force =    -0.00000000   -0.00249799   99.77271603
     atom    2 type  1   force =    -0.00000000   -0.01121519  100.01530666
     atom    3 type  1   force =     0.00000000   -0.02497985   91.26245065
     atom    4 type  1   force =    -0.00000000   -0.00594053   93.77281606
     atom    5 type  2   force =     3.30269402   -0.00726825  172.82878081
     atom    6 type  2   force =    -3.30269402   -0.00726825  172.82878081
     atom    7 type  1   force =     0.41217924    0.84415783   61.83122791
     atom    8 type  1   force =    -0.41217924    0.84415783   61.83122791
     atom    9 type  2   force =    -0.00000000    0.01780766  172.13747992
     atom   10 type  2   force =    -0.00000000    0.01684575  173.02814291
     atom   11 type  1   force =     0.41142414   -0.83881303   61.76747495
     atom   12 type  1   force =    -0.41142414   -0.83881303   61.76747495
     atom   13 type  1   force =    -0.00000000   -0.00537514   39.05565639
     atom   14 type  1   force =     0.00000000   -0.00566396   37.38364189
     atom   15 type  1   force =     0.00000000    0.00273851   26.75170607
     atom   16 type  1   force =     0.00000000    0.00267820   26.93428331
     atom   17 type  2   force =    -0.00000000    0.01162834   -0.00586075
     atom   18 type  2   force =     0.00000000    0.00937998   -0.00584970
     atom   19 type  1   force =     0.15290146   -1.18602137   -0.00245478
     atom   20 type  1   force =    -0.15290146   -1.18602137   -0.00245478
     atom   21 type  2   force =     0.43587024   -0.00292075   -0.00604162
     atom   22 type  2   force =    -0.43587024   -0.00292075   -0.00604162
     atom   23 type  1   force =     0.15513146    1.18578478   -0.00245475
     atom   24 type  1   force =    -0.15513146    1.18578478   -0.00245475
     atom   25 type  1   force =    -0.00000000    0.00273866  -26.75349976
     atom   26 type  1   force =    -0.00000000    0.00267831  -26.93608521
     atom   27 type  1   force =     0.00000000   -0.00537511  -39.05742007
     atom   28 type  1   force =     0.00000000   -0.00566385  -37.38539194
     atom   29 type  2   force =     3.30269900   -0.00726814 -172.83486016
     atom   30 type  2   force =    -3.30269900   -0.00726814 -172.83486016
     atom   31 type  1   force =     0.41218141    0.84418232  -61.83366963
     atom   32 type  1   force =    -0.41218141    0.84418232  -61.83366963
     atom   33 type  2   force =     0.00000000    0.01780802 -172.14323309
     atom   34 type  2   force =     0.00000000    0.01684635 -173.03391832
     atom   35 type  1   force =     0.41142632   -0.83883749  -61.76991635
     atom   36 type  1   force =    -0.41142632   -0.83883749  -61.76991635
     atom   37 type  1   force =     0.00000000   -0.02498368  -91.26614640
     atom   38 type  1   force =    -0.00000000   -0.00594035  -93.77667001
     atom   39 type  1   force =    -0.00000000   -0.00249738  -99.77409345
     atom   40 type  1   force =     0.00000000   -0.01121429 -100.01667681
     atom   41 type  3   force =    -0.00000000    0.04845089   18.22382373
     atom   42 type  3   force =    -0.00000000    0.04845089  -18.22382373
     The core correction contribution to forces
     atom    1 type  1   force =     0.00000000    0.00000449   -0.01108694
     atom    2 type  1   force =    -0.00000000    0.00001751   -0.01116822
     atom    3 type  1   force =     0.00000000    0.00035661    0.00875025
     atom    4 type  1   force =     0.00000000    0.00001030   -0.01118904
     atom    5 type  2   force =     0.00000000    0.00000000    0.00000000
     atom    6 type  2   force =     0.00000000    0.00000000    0.00000000
     atom    7 type  1   force =    -0.00023486   -0.00051298    0.00163247
     atom    8 type  1   force =     0.00023486   -0.00051298    0.00163247
     atom    9 type  2   force =     0.00000000    0.00000000    0.00000000
     atom   10 type  2   force =     0.00000000    0.00000000    0.00000000
     atom   11 type  1   force =    -0.00023407    0.00050539    0.00167026
     atom   12 type  1   force =     0.00023407    0.00050539    0.00167026
     atom   13 type  1   force =     0.00000000    0.00000077   -0.00107427
     atom   14 type  1   force =     0.00000000    0.00001941    0.00071725
     atom   15 type  1   force =     0.00000000   -0.00000463   -0.00235747
     atom   16 type  1   force =    -0.00000000   -0.00000681   -0.00253412
     atom   17 type  2   force =     0.00000000    0.00000000    0.00000000
     atom   18 type  2   force =     0.00000000    0.00000000    0.00000000
     atom   19 type  1   force =    -0.00000892   -0.00006821   -0.00000201
     atom   20 type  1   force =     0.00000892   -0.00006821   -0.00000201
     atom   21 type  2   force =     0.00000000    0.00000000    0.00000000
     atom   22 type  2   force =     0.00000000    0.00000000    0.00000000
     atom   23 type  1   force =    -0.00001072    0.00006857   -0.00000201
     atom   24 type  1   force =     0.00001072    0.00006857   -0.00000201
     atom   25 type  1   force =     0.00000000   -0.00000463    0.00235540
     atom   26 type  1   force =    -0.00000000   -0.00000681    0.00253203
     atom   27 type  1   force =     0.00000000    0.00000077    0.00107211
     atom   28 type  1   force =     0.00000000    0.00001941   -0.00071956
     atom   29 type  2   force =     0.00000000    0.00000000    0.00000000
     atom   30 type  2   force =     0.00000000    0.00000000    0.00000000
     atom   31 type  1   force =    -0.00023483   -0.00051299   -0.00163392
     atom   32 type  1   force =     0.00023483   -0.00051299   -0.00163392
     atom   33 type  2   force =     0.00000000    0.00000000    0.00000000
     atom   34 type  2   force =     0.00000000    0.00000000    0.00000000
     atom   35 type  1   force =    -0.00023404    0.00050539   -0.00167171
     atom   36 type  1   force =     0.00023404    0.00050539   -0.00167171
     atom   37 type  1   force =    -0.00000000    0.00035666   -0.00875574
     atom   38 type  1   force =    -0.00000000    0.00001030    0.01118505
     atom   39 type  1   force =     0.00000000    0.00000450    0.01108523
     atom   40 type  1   force =    -0.00000000    0.00001752    0.01116645
     atom   41 type  3   force =     0.00000000    0.00000000    0.00000000
     atom   42 type  3   force =     0.00000000    0.00000000    0.00000000
     The Hubbard contrib.    to forces
     atom    1 type  1   force =     0.00000000    0.00000000    0.00000000
     atom    2 type  1   force =     0.00000000    0.00000000    0.00000000
     atom    3 type  1   force =     0.00000000    0.00000000    0.00000000
     atom    4 type  1   force =     0.00000000    0.00000000    0.00000000
     atom    5 type  2   force =     0.00000000    0.00000000    0.00000000
     atom    6 type  2   force =     0.00000000    0.00000000    0.00000000
     atom    7 type  1   force =     0.00000000    0.00000000    0.00000000
     atom    8 type  1   force =     0.00000000    0.00000000    0.00000000
     atom    9 type  2   force =     0.00000000    0.00000000    0.00000000
     atom   10 type  2   force =     0.00000000    0.00000000    0.00000000
     atom   11 type  1   force =     0.00000000    0.00000000    0.00000000
     atom   12 type  1   force =     0.00000000    0.00000000    0.00000000
     atom   13 type  1   force =     0.00000000    0.00000000    0.00000000
     atom   14 type  1   force =     0.00000000    0.00000000    0.00000000
     atom   15 type  1   force =     0.00000000    0.00000000    0.00000000
     atom   16 type  1   force =     0.00000000    0.00000000    0.00000000
     atom   17 type  2   force =     0.00000000    0.00000000    0.00000000
     atom   18 type  2   force =     0.00000000    0.00000000    0.00000000
     atom   19 type  1   force =     0.00000000    0.00000000    0.00000000
     atom   20 type  1   force =     0.00000000    0.00000000    0.00000000
     atom   21 type  2   force =     0.00000000    0.00000000    0.00000000
     atom   22 type  2   force =     0.00000000    0.00000000    0.00000000
     atom   23 type  1   force =     0.00000000    0.00000000    0.00000000
     atom   24 type  1   force =     0.00000000    0.00000000    0.00000000
     atom   25 type  1   force =     0.00000000    0.00000000    0.00000000
     atom   26 type  1   force =     0.00000000    0.00000000    0.00000000
     atom   27 type  1   force =     0.00000000    0.00000000    0.00000000
     atom   28 type  1   force =     0.00000000    0.00000000    0.00000000
     atom   29 type  2   force =     0.00000000    0.00000000    0.00000000
     atom   30 type  2   force =     0.00000000    0.00000000    0.00000000
     atom   31 type  1   force =     0.00000000    0.00000000    0.00000000
     atom   32 type  1   force =     0.00000000    0.00000000    0.00000000
     atom   33 type  2   force =     0.00000000    0.00000000    0.00000000
     atom   34 type  2   force =     0.00000000    0.00000000    0.00000000
     atom   35 type  1   force =     0.00000000    0.00000000    0.00000000
     atom   36 type  1   force =     0.00000000    0.00000000    0.00000000
     atom   37 type  1   force =     0.00000000    0.00000000    0.00000000
     atom   38 type  1   force =     0.00000000    0.00000000    0.00000000
     atom   39 type  1   force =     0.00000000    0.00000000    0.00000000
     atom   40 type  1   force =     0.00000000    0.00000000    0.00000000
     atom   41 type  3   force =     0.00000000    0.00000000    0.00000000
     atom   42 type  3   force =     0.00000000    0.00000000    0.00000000
     The SCF correction term to forces
     atom    1 type  1   force =    -0.00000000    0.00000053   -0.00000119
     atom    2 type  1   force =     0.00000000   -0.00000023   -0.00000148
     atom    3 type  1   force =     0.00000000   -0.00000085   -0.00000133
     atom    4 type  1   force =    -0.00000000    0.00000025   -0.00000129
     atom    5 type  2   force =     0.00000012   -0.00000023   -0.00000357
     atom    6 type  2   force =    -0.00000012   -0.00000023   -0.00000357
     atom    7 type  1   force =    -0.00000010   -0.00000020   -0.00000119
     atom    8 type  1   force =     0.00000010   -0.00000020   -0.00000119
     atom    9 type  2   force =    -0.00000000    0.00000058   -0.00000389
     atom   10 type  2   force =    -0.00000000   -0.00000040   -0.00000318
     atom   11 type  1   force =    -0.00000047    0.00000031   -0.00000131
     atom   12 type  1   force =     0.00000047    0.00000031   -0.00000131
     atom   13 type  1   force =    -0.00000000   -0.00000004   -0.00000137
     atom   14 type  1   force =    -0.00000000    0.00000009   -0.00000103
     atom   15 type  1   force =    -0.00000000    0.00000003   -0.00000095
     atom   16 type  1   force =    -0.00000000   -0.00000001   -0.00000057
     atom   17 type  2   force =    -0.00000000   -0.00000004   -0.00000001
     atom   18 type  2   force =    -0.00000000    0.00000016   -0.00000001
     atom   19 type  1   force =     0.00000030   -0.00000006   -0.00000000
     atom   20 type  1   force =    -0.00000030   -0.00000006   -0.00000000
     atom   21 type  2   force =     0.00000018   -0.00000005   -0.00000001
     atom   22 type  2   force =    -0.00000018   -0.00000005   -0.00000001
     atom   23 type  1   force =     0.00000022    0.00000013   -0.00000000
     atom   24 type  1   force =    -0.00000022    0.00000013   -0.00000000
     atom   25 type  1   force =    -0.00000000    0.00000003    0.00000094
     atom   26 type  1   force =    -0.00000000   -0.00000001    0.00000056
     atom   27 type  1   force =    -0.00000000   -0.00000004    0.00000136
     atom   28 type  1   force =     0.00000000    0.00000009    0.00000103
     atom   29 type  2   force =     0.00000012   -0.00000023    0.00000357
     atom   30 type  2   force =    -0.00000012   -0.00000023    0.00000357
     atom   31 type  1   force =    -0.00000010   -0.00000020    0.00000119
     atom   32 type  1   force =     0.00000010   -0.00000020    0.00000119
     atom   33 type  2   force =     0.00000000    0.00000058    0.00000389
     atom   34 type  2   force =    -0.00000000   -0.00000040    0.00000319
     atom   35 type  1   force =    -0.00000047    0.00000031    0.00000131
     atom   36 type  1   force =     0.00000047    0.00000031    0.00000131
     atom   37 type  1   force =    -0.00000000   -0.00000085    0.00000133
     atom   38 type  1   force =     0.00000000    0.00000026    0.00000129
     atom   39 type  1   force =     0.00000000    0.00000053    0.00000119
     atom   40 type  1   force =     0.00000000   -0.00000023    0.00000148
     atom   41 type  3   force =    -0.00000000   -0.00000006   -0.00000012
     atom   42 type  3   force =    -0.00000000   -0.00000006    0.00000012

     Total force =     0.000255     Total SCF correction =     0.000012
     Energy error            =      1.0E-06 Ry
     Gradient error          =      7.5E-05 Ry/Bohr

     bfgs converged in  42 scf cycles and  41 bfgs steps
     (criteria: energy <  1.0E-04 Ry, force <  1.0E-04 Ry/Bohr)

     End of BFGS Geometry Optimization

     Final energy             =   -3430.1827646942 Ry

     File /storage/home/mgm6007/ixd4/Maria/Strain2_Files/RuO2-110-0-2/RuO2-110-0-2.bfgs deleted, as requested
Begin final coordinates

ATOMIC_POSITIONS (crystal)
O             0.0000000000        0.5058153678        0.2749457051
O             0.5000000000        0.5059918010        0.2743814562
O             0.0000000000        0.0056056035        0.3027311857
O             0.5000000000        0.0056007176        0.3078254321
Ru            0.2566164171        0.0055464940        0.3570073926
Ru            0.7433835829        0.0055464940        0.3570073926
O             0.2500547837        0.3165971030        0.3597027700
O             0.7499452163        0.3165971030        0.3597027700
Ru            0.0000000000        0.5055588261        0.3525535412
Ru            0.5000000000        0.5055842403        0.3518493204
O             0.2500231304        0.6945270379        0.3597923803
O             0.7499768696        0.6945270379        0.3597923803
O             0.0000000000        0.0055904983        0.4124100254
O             0.5000000000        0.0056200160        0.4115844763
O             0.0000000000        0.5054291936        0.4449235952
O             0.5000000000        0.5054299730        0.4453244396
Ru            0.0000000000        0.0054710200        0.5000010000
Ru            0.5000000000        0.0054542757        0.5000010000
O             0.2501162759        0.1935374259        0.5000010000
O             0.7498837241        0.1935374259        0.5000010000
Ru            0.2503118687        0.5054493473        0.5000010000
Ru            0.7496881313        0.5054493473        0.5000010000
O             0.2501267850        0.8173664876        0.5000010000
O             0.7498732150        0.8173664876        0.5000010000
O             0.0000000000        0.5054291936        0.5550774048
O             0.5000000000        0.5054299730        0.5546765604
O             0.0000000000        0.0055904983        0.5875909746
O             0.5000000000        0.0056200160        0.5884165237
Ru            0.2566164171        0.0055464940        0.6429936074
Ru            0.7433835829        0.0055464940        0.6429936074
O             0.2500547837        0.3165971030        0.6402982300
O             0.7499452163        0.3165971030        0.6402982300
Ru            0.0000000000        0.5055588261        0.6474474588
Ru            0.5000000000        0.5055842403        0.6481516796
O             0.2500231304        0.6945270379        0.6402086197
O             0.7499768696        0.6945270379        0.6402086197
O             0.0000000000        0.0056056035        0.6972708143
O             0.5000000000        0.0056007176        0.6921765679
O             0.0000000000        0.5058153678        0.7250552949
O             0.5000000000        0.5059918010        0.7256195438
H             0.0000000000        0.0028335841        0.2585177957
H             0.0000000000        0.0028335841        0.7414822043
End final coordinates



     Writing all to output data dir /storage/home/mgm6007/ixd4/Maria/Strain2_Files/RuO2-110-0-2/RuO2-110-0-2.save/
 
     init_run     :    204.37s CPU    592.83s WALL (       1 calls)
     electrons    :  48389.74s CPU 177869.23s WALL (      42 calls)
     update_pot   :     69.72s CPU     87.01s WALL (      41 calls)
     forces       :     65.26s CPU     80.91s WALL (      42 calls)

     Called by init_run:
     wfcinit      :      0.49s CPU      0.50s WALL (       1 calls)
     potinit      :    141.28s CPU    429.60s WALL (       1 calls)
     hinit0       :     62.13s CPU    162.21s WALL (       1 calls)

     Called by electrons:
     c_bands      :   1216.77s CPU   1580.42s WALL (     808 calls)
     sum_band     :    246.05s CPU    324.07s WALL (     808 calls)
     v_of_rho     :     85.37s CPU   2594.92s WALL (     809 calls)
     newd         :     53.12s CPU     63.72s WALL (     809 calls)
     PAW_pot      :     98.69s CPU    122.85s WALL (     850 calls)
     mix_rho      :    839.27s CPU   1192.52s WALL (     808 calls)

     Called by c_bands:
     init_us_2    :      9.74s CPU     10.68s WALL (    1658 calls)
     init_us_2:cp :      9.73s CPU     10.68s WALL (    1658 calls)
     cegterg      :   1178.32s CPU   1535.02s WALL (     808 calls)

     Called by *egterg:
     cdiaghg      :    127.39s CPU    157.14s WALL (    2701 calls)
     h_psi        :    646.96s CPU    879.27s WALL (    2784 calls)
     s_psi        :     80.23s CPU     97.33s WALL (    2784 calls)
     g_psi        :      2.57s CPU      2.94s WALL (    1975 calls)

     Called by h_psi:
     h_psi:calbec :     85.81s CPU    106.08s WALL (    2784 calls)
     vloc_psi     :    472.20s CPU    663.98s WALL (    2784 calls)
     add_vuspsi   :     83.16s CPU    102.54s WALL (    2784 calls)

     General routines
     calbec       :    132.61s CPU    163.52s WALL (    3801 calls)
     fft          :  11401.38s CPU  11466.73s WALL (   10977 calls)
     ffts         :    252.34s CPU    335.73s WALL (  338338 calls)
     fftw         :    476.71s CPU    680.58s WALL (  955562 calls)
     interpolate  :  11340.12s CPU  11393.36s WALL (     809 calls)
 
     Parallel routines
 
     Environ routines
 
     PWSCF        :     14h17m CPU   2d 4h 9m WALL

 
   This run was terminated on:  21:10:46  23Jul2023            

=------------------------------------------------------------------------------=
   JOB DONE.
=------------------------------------------------------------------------------=
