
     Program PWSCF v.7.2 starts on 26Jul2023 at 11:22:59 
        Git branch: heads/qe-7.2
        Last git commit: b4c5e8deeb7d1863e7553a87b45f8d22c21926a5
        Last git commit date: Mon Mar 27 16:12:09 2023 +0000
        Last git commit subject: Merge branch 'merge_fix_hubbard' into 'develop'

     This program is part of the open-source Quantum ESPRESSO suite
     for quantum simulation of materials; please cite
         "P. Giannozzi et al., J. Phys.:Condens. Matter 21 395502 (2009);
         "P. Giannozzi et al., J. Phys.:Condens. Matter 29 465901 (2017);
         "P. Giannozzi et al., J. Chem. Phys. 152 154105 (2020);
          URL http://www.quantum-espresso.org", 
     in publications or presentations arising from this work. More details at
     http://www.quantum-espresso.org/quote

     Parallel version (MPI), running on    20 processors

     MPI processes distributed on     1 nodes
     72557 MiB available memory on the printing compute node when the environment starts
 
     Reading input from RuO2-110-0-02345.in

     Current dimensions of program PWSCF are:
     Max number of different atomic species (ntypx) = 10
     Max number of k-points (npk) =  40000
     Max angular momentum in pseudopotentials (lmaxx) =  4
 
     Reading input from environ.in:
     * Environ restarting
     * setting up water environment
     * using electronic solvent mode
     * setting boundary derivatives method to SCCS default
     
     file O.pbe-n-kjpaw_psl.0.1.UPF: wavefunction(s)  2P renormalized
     Message from routine setup:
     using ibrav=0 with symmetry is DISCOURAGED, use correct ibrav instead
 
     R & G space division:  proc/nbgrp/npool/nimage =      20
     Subspace diagonalization in iterative solution of the eigenvalue problem:
     one sub-group per band group will be used
     scalapack distributed-memory algorithm (size of sub-group:  2*  2 procs)

 
     Parallelization info
     --------------------
     sticks:   dense  smooth     PW     G-vecs:    dense   smooth      PW
     Min         276     110     29                54982    13912    1877
     Max         277     111     30                54993    13923    1888
     Sum        5537    2217    585              1099789   278381   37601
 
     Using Slab Decomposition
 


     bravais-lattice index     =            0
     lattice parameter (alat)  =      12.3824  a.u.
     unit-cell volume          =    5825.9133 (a.u.)^3
     number of atoms/cell      =           50
     number of atomic types    =            3
     number of electrons       =       370.00
     number of Kohn-Sham states=          222
     kinetic-energy cutoff     =      50.0000  Ry
     charge density cutoff     =     500.0000  Ry
     scf convergence threshold =      1.0E-09
     mixing beta               =       0.7000
     number of iterations used =            8  local-TF  mixing
     energy convergence thresh.=      1.0E-04
     force convergence thresh. =      1.0E-04
     Exchange-correlation= PBE
                           (   1   4   3   4   0   0   0)
     nstep                     =          200


     ================================================================================
 
                                  Environ Setup Summary

     ================================================================================
 
     Please cite

          O. Andreussi, I. Dabo and N. Marzari, J. Chem. Phys. 136, 064102 (2012)

     in publications or presentations arising from this work.

     ================================================================================
 
     Parameters
     ==========

     compensation onset threshold      =               0.1000E+00
     static permittivity               =                    78.30
     surface tension in input (dyn/cm) =                    47.90
     surface tension in internal units =               0.6153E-04
     external pressure in input (GPa)  =                    -0.36
     external pressure in inter. units =              -0.2447E-04

     Solvent Boundary
     ================

     solvent mode                      =               electronic
     derivatives method                =                    chain
     numerical core for derivatives    =                      fft
     switching function adopted        =                     SCCS
     density limit for vacuum region   =               0.5000E-02
     density limit for bulk solvent    =               0.1000E-03

     Electrostatic Setup
     ===================

     electrostatic problem to solve    =              generalized
     numerical solver adopted          =                       cg
     type of auxiliary density adopted =                     none
     numerical core for poisson        =                      fft
     type of pbc corrections           =                parabolic
     numerical core for corrections    =                      1da

     ================================================================================
 

     celldm(1)=  12.382447  celldm(2)=   0.000000  celldm(3)=   0.000000
     celldm(4)=   0.000000  celldm(5)=   0.000000  celldm(6)=   0.000000

     crystal axes: (cart. coord. in units of alat)
               a(1) = (   1.000000   0.000000   0.000000 )  
               a(2) = (   0.000000   0.908473   0.000000 )  
               a(3) = (   0.000000   0.000000   3.377790 )  

     reciprocal axes: (cart. coord. in units 2 pi/alat)
               b(1) = (  1.000000  0.000000  0.000000 )  
               b(2) = (  0.000000  1.100748  0.000000 )  
               b(3) = (  0.000000  0.000000  0.296052 )  


     PseudoPot. # 1 for O  read from file:
     /gpfs/group/ixd4/default/Simon/pseudopotentials/materialscloud/SSSP_1.3.0_PBE_efficiency/O.pbe-n-kjpaw_psl.0.1.UPF
     MD5 check sum: 0234752ac141de4415c5fc33072bef88
     Pseudo is Projector augmented-wave + core cor, Zval =  6.0
     Generated using "atomic" code by A. Dal Corso  v.5.0.99 svn rev. 10869
     Shape of augmentation charge: BESSEL
     Using radial grid of 1095 points,  4 beta functions with: 
                l(1) =   0
                l(2) =   0
                l(3) =   1
                l(4) =   1
     Q(r) pseudized with 0 coefficients 


     PseudoPot. # 2 for Ru read from file:
     /gpfs/group/ixd4/default/Simon/pseudopotentials/materialscloud/SSSP_1.3.0_PBE_efficiency/Ru_ONCV_PBE-1.0.oncvpsp.upf
     MD5 check sum: be037bb81c227cfb9b1461a9f099f4bd
     Pseudo is Norm-conserving, Zval = 16.0
     Generated using ONCVPSP code by D. R. Hamann
     Using radial grid of 1458 points,  6 beta functions with: 
                l(1) =   0
                l(2) =   0
                l(3) =   1
                l(4) =   1
                l(5) =   2
                l(6) =   2

     PseudoPot. # 3 for H  read from file:
     /gpfs/group/ixd4/default/Simon/pseudopotentials/materialscloud/SSSP_1.3.0_PBE_efficiency/H.pbe-rrkjus_psl.1.0.0.UPF
     MD5 check sum: f52b6d4d1c606e5624b1dc7b2218f220
     Pseudo is Ultrasoft, Zval =  1.0
     Generated using "atomic" code by A. Dal Corso  v.5.1
     Using radial grid of  929 points,  2 beta functions with: 
                l(1) =   0
                l(2) =   0
     Q(r) pseudized with 0 coefficients 


     atomic species   valence    mass     pseudopotential
        O              6.00    15.99940     O ( 1.00)
        Ru            16.00   101.07000     Ru( 1.00)
        H              1.00     1.00794     H ( 1.00)

      4 Sym. Ops. (no inversion) found



   Cartesian axes

     site n.     atom                  positions (alat units)
         1           O   tau(   1) = (   0.0235556   0.4542364   0.8988869  )
         2           O   tau(   2) = (   0.4743534   0.4542364   0.9101075  )
         3           O   tau(   3) = (  -0.0021720   0.0000000   0.9717000  )
         4           O   tau(   4) = (   0.4965405   0.0000000   0.9704727  )
         5           Ru  tau(   5) = (   0.2472191   0.0000000   1.2193076  )
         6           Ru  tau(   6) = (   0.7470529   0.0000000   1.2143410  )
         7           O   tau(   7) = (   0.2444624   0.2730265   1.2052832  )
         8           O   tau(   8) = (   0.7508729   0.2763256   1.1952464  )
         9           Ru  tau(   9) = (  -0.0006769   0.4542364   1.2069408  )
        10           Ru  tau(  10) = (   0.4987729   0.4542364   1.1832444  )
        11           O   tau(  11) = (   0.2444624   0.6354464   1.2052832  )
        12           O   tau(  12) = (   0.7508729   0.6321472   1.1952464  )
        13           O   tau(  13) = (  -0.0047420   0.0000000   1.3942041  )
        14           O   tau(  14) = (   0.4987634   0.0000000   1.3940340  )
        15           O   tau(  15) = (  -0.0027227   0.4542364   1.5048980  )
        16           O   tau(  16) = (   0.4963543   0.4542364   1.4863372  )
        17           Ru  tau(  17) = (  -0.0050997   0.0000000   1.6888985  )
        18           Ru  tau(  18) = (   0.4989836   0.0000000   1.6888985  )
        19           O   tau(  19) = (   0.2486404   0.1750674   1.6888985  )
        20           O   tau(  20) = (   0.7451737   0.1790662   1.6888985  )
        21           Ru  tau(  21) = (   0.2537672   0.4542364   1.6888985  )
        22           Ru  tau(  22) = (   0.7414777   0.4542364   1.6888985  )
        23           O   tau(  23) = (   0.2486404   0.7334064   1.6888985  )
        24           O   tau(  24) = (   0.7451737   0.7294075   1.6888985  )
        25           O   tau(  25) = (  -0.0027227   0.4542364   1.8728957  )
        26           O   tau(  26) = (   0.4963543   0.4542364   1.8914565  )
        27           O   tau(  27) = (  -0.0047420   0.0000000   1.9835896  )
        28           O   tau(  28) = (   0.4987634   0.0000000   1.9837597  )
        29           Ru  tau(  29) = (   0.2472191   0.0000000   2.1584861  )
        30           Ru  tau(  30) = (   0.7470529   0.0000000   2.1634527  )
        31           O   tau(  31) = (   0.2444624   0.2730265   2.1725105  )
        32           O   tau(  32) = (   0.7508729   0.2763256   2.1825473  )
        33           Ru  tau(  33) = (  -0.0006769   0.4542364   2.1708529  )
        34           Ru  tau(  34) = (   0.4987729   0.4542364   2.1945493  )
        35           O   tau(  35) = (   0.2444624   0.6354464   2.1725105  )
        36           O   tau(  36) = (   0.7508729   0.6321472   2.1825473  )
        37           O   tau(  37) = (  -0.0021720   0.0000000   2.4060971  )
        38           O   tau(  38) = (   0.4965405   0.0000000   2.4073244  )
        39           O   tau(  39) = (   0.0235556   0.4542364   2.4789068  )
        40           O   tau(  40) = (   0.4743534   0.4542364   2.4676862  )
        41           H   tau(  41) = (   0.1775522   0.4542364   0.8796067  )
        42           H   tau(  42) = (   0.1775522   0.4542364   2.4981837  )
        43           H   tau(  43) = (  -0.0010069   0.1118788   0.8863664  )
        44           H   tau(  44) = (  -0.0010069   0.1118788   2.4914239  )
        45           H   tau(  45) = (   0.4953745   0.1107039   0.8838398  )
        46           H   tau(  46) = (   0.4953745   0.1107039   2.4939505  )
        47           H   tau(  47) = (  -0.0010069   0.7965941   0.8863664  )
        48           H   tau(  48) = (  -0.0010069   0.7965941   2.4914239  )
        49           H   tau(  49) = (   0.4953745   0.7977689   0.8838398  )
        50           H   tau(  50) = (   0.4953745   0.7977689   2.4939505  )

     number of k points=     1  Marzari-Vanderbilt smearing, width (Ry)=  0.0300
                       cart. coord. in units 2pi/alat
        k(    1) = (   0.2500000   0.2751871   0.0000000), wk =   2.0000000

     Dense  grid:  1099789 G-vectors     FFT dimensions: (  90,  81, 300)

     Smooth grid:   278381 G-vectors     FFT dimensions: (  60,  54, 192)

     Estimated max dynamical RAM per process >     168.93 MB

     Estimated total dynamical RAM >       3.30 GB

     Check: negative core charge=   -0.000001

     Initial potential from superposition of free atoms

     starting charge     369.9932, renormalised to     370.0000

     add environment contribution to local potential
     Polarization accuracy = 1.9E-12, # of iterations =  24

     negative rho (up, down):  2.831E-05 0.000E+00
     Starting wfcs are  242 randomized atomic wfcs
     Checking if some PAW data can be deallocated... 

     total cpu time spent up to now is    51481.2 secs

     per-process dynamical memory:   139.0 Mb

     Self-consistent Calculation

     iteration #  1     ecut=    50.00 Ry     beta= 0.70
     Davidson diagonalization with overlap
     ethr =  1.00E-02,  avg # of iterations =  4.0

     total cpu time spent up to now is    51747.9 secs

     total energy              =   -3437.74678992 Ry
     estimated scf accuracy    <       9.48394158 Ry
     electrostatic embedding   =      -0.00171410 Ry
     cavitation energy         =       0.01874571 Ry
     PV energy                 =      -0.08727881 Ry
     correction to one-el term =     226.78823131 Ry

     iteration #  2     ecut=    50.00 Ry     beta= 0.70
     Davidson diagonalization with overlap
     ethr =  2.56E-03,  avg # of iterations =  2.0

     total cpu time spent up to now is    51981.2 secs

     total energy              =   -3439.63904254 Ry
     estimated scf accuracy    <       2.46657697 Ry
     electrostatic embedding   =      -0.00299628 Ry
     cavitation energy         =       0.01861205 Ry
     PV energy                 =      -0.08856025 Ry
     correction to one-el term =     226.79223029 Ry

     iteration #  3     ecut=    50.00 Ry     beta= 0.70
     Davidson diagonalization with overlap
     ethr =  6.67E-04,  avg # of iterations =  1.0

     total cpu time spent up to now is    52245.5 secs

     total energy              =   -3439.77631951 Ry
     estimated scf accuracy    <       0.45758149 Ry
     electrostatic embedding   =      -0.00355965 Ry
     cavitation energy         =       0.01868834 Ry
     PV energy                 =      -0.08893342 Ry
     correction to one-el term =     226.79373908 Ry

     iteration #  4     ecut=    50.00 Ry     beta= 0.70
     Davidson diagonalization with overlap
     ethr =  1.24E-04,  avg # of iterations =  5.0

     total cpu time spent up to now is    52444.5 secs

     total energy              =   -3439.79221851 Ry
     estimated scf accuracy    <       1.00309951 Ry
     electrostatic embedding   =      -0.00397476 Ry
     cavitation energy         =       0.01897340 Ry
     PV energy                 =      -0.08865508 Ry
     correction to one-el term =     226.79444435 Ry

     iteration #  5     ecut=    50.00 Ry     beta= 0.70
     Davidson diagonalization with overlap
     ethr =  1.24E-04,  avg # of iterations =  1.0

     total cpu time spent up to now is    52654.4 secs

     total energy              =   -3439.76071576 Ry
     estimated scf accuracy    <       0.44096111 Ry
     electrostatic embedding   =      -0.00417481 Ry
     cavitation energy         =       0.01917448 Ry
     PV energy                 =      -0.08841641 Ry
     correction to one-el term =     226.79473885 Ry

     iteration #  6     ecut=    50.00 Ry     beta= 0.70
     Davidson diagonalization with overlap
     ethr =  1.19E-04,  avg # of iterations =  1.0

     total cpu time spent up to now is    52982.6 secs

     total energy              =   -3439.74350704 Ry
     estimated scf accuracy    <       0.48568261 Ry
     electrostatic embedding   =      -0.00441612 Ry
     cavitation energy         =       0.01992016 Ry
     PV energy                 =      -0.08702628 Ry
     correction to one-el term =     226.79458506 Ry

     iteration #  7     ecut=    50.00 Ry     beta= 0.70
     Davidson diagonalization with overlap
     ethr =  1.19E-04,  avg # of iterations =  1.0

     total cpu time spent up to now is    53243.5 secs

     total energy              =   -3439.73464925 Ry
     estimated scf accuracy    <       0.19646810 Ry
     electrostatic embedding   =      -0.00435004 Ry
     cavitation energy         =       0.02053130 Ry
     PV energy                 =      -0.08548795 Ry
     correction to one-el term =     226.79379546 Ry

     iteration #  8     ecut=    50.00 Ry     beta= 0.70
     Davidson diagonalization with overlap
     ethr =  5.31E-05,  avg # of iterations =  9.0

     add environment contribution to local potential
     Polarization accuracy = 5.7E-12, # of iterations =  44

     total cpu time spent up to now is    53528.9 secs

     total energy              =   -3439.72894126 Ry
     estimated scf accuracy    <       0.06682834 Ry
     electrostatic embedding   =      -0.00405965 Ry
     cavitation energy         =       0.02127312 Ry
     PV energy                 =      -0.08372994 Ry
     correction to one-el term =     226.79237680 Ry

     iteration #  9     ecut=    50.00 Ry     beta= 0.70
     Davidson diagonalization with overlap
     ethr =  1.81E-05,  avg # of iterations =  9.0

     total cpu time spent up to now is    53756.2 secs

     total energy              =   -3439.79971570 Ry
     estimated scf accuracy    <       0.17458223 Ry
     electrostatic embedding   =      -0.08702245 Ry
     cavitation energy         =       0.02120676 Ry
     PV energy                 =      -0.08310685 Ry
     correction to one-el term =     166.21703956 Ry

     iteration # 10     ecut=    50.00 Ry     beta= 0.70
     Davidson diagonalization with overlap
     ethr =  1.81E-05,  avg # of iterations =  1.0

     add environment contribution to local potential
     Polarization accuracy = 7.3E-12, # of iterations =  43

     total cpu time spent up to now is    54063.7 secs

     total energy              =   -3439.79104807 Ry
     estimated scf accuracy    <       0.07241187 Ry
     electrostatic embedding   =      -0.08787135 Ry
     cavitation energy         =       0.02114317 Ry
     PV energy                 =      -0.08306401 Ry
     correction to one-el term =     166.21972384 Ry

     iteration # 11     ecut=    50.00 Ry     beta= 0.70
     Davidson diagonalization with overlap
     ethr =  1.81E-05,  avg # of iterations =  2.0

     add environment contribution to local potential
     Polarization accuracy = 8.0E-12, # of iterations =  42

     total cpu time spent up to now is    54341.3 secs

     total energy              =   -3439.79606395 Ry
     estimated scf accuracy    <       0.01521626 Ry
     electrostatic embedding   =      -0.09457205 Ry
     cavitation energy         =       0.02087506 Ry
     PV energy                 =      -0.08308244 Ry
     correction to one-el term =     166.98981555 Ry

     iteration # 12     ecut=    50.00 Ry     beta= 0.70
     Davidson diagonalization with overlap
     ethr =  4.11E-06,  avg # of iterations =  6.0

     negative rho (up, down):  6.776E-06 0.000E+00

     add environment contribution to local potential
     Polarization accuracy = 3.6E-12, # of iterations =  42

     total cpu time spent up to now is    54571.7 secs

     total energy              =   -3439.79669562 Ry
     estimated scf accuracy    <       0.00560978 Ry
     electrostatic embedding   =      -0.09639444 Ry
     cavitation energy         =       0.02071210 Ry
     PV energy                 =      -0.08319345 Ry
     correction to one-el term =     168.10907210 Ry

     iteration # 13     ecut=    50.00 Ry     beta= 0.70
     Davidson diagonalization with overlap
     ethr =  1.52E-06,  avg # of iterations =  5.0

     negative rho (up, down):  8.832E-05 0.000E+00

     add environment contribution to local potential
     Polarization accuracy = 2.1E-12, # of iterations =  42

     total cpu time spent up to now is    54803.6 secs

     total energy              =   -3439.79918324 Ry
     estimated scf accuracy    <       0.01369850 Ry
     electrostatic embedding   =      -0.10070571 Ry
     cavitation energy         =       0.02056652 Ry
     PV energy                 =      -0.08329512 Ry
     correction to one-el term =     169.31753485 Ry

     iteration # 14     ecut=    50.00 Ry     beta= 0.70
     Davidson diagonalization with overlap
     ethr =  1.52E-06,  avg # of iterations =  7.0

     negative rho (up, down):  5.422E-07 0.000E+00

     add environment contribution to local potential
     Polarization accuracy = 1.6E-12, # of iterations =  42

     total cpu time spent up to now is    55069.1 secs

     total energy              =   -3439.79923709 Ry
     estimated scf accuracy    <       0.01589038 Ry
     electrostatic embedding   =      -0.10122927 Ry
     cavitation energy         =       0.02049525 Ry
     PV energy                 =      -0.08339680 Ry
     correction to one-el term =     170.32380203 Ry

     iteration # 15     ecut=    50.00 Ry     beta= 0.70
     Davidson diagonalization with overlap
     ethr =  1.52E-06,  avg # of iterations =  8.0

     negative rho (up, down):  1.573E-07 0.000E+00

     add environment contribution to local potential
     Polarization accuracy = 6.5E-12, # of iterations =  41

     total cpu time spent up to now is    55291.5 secs

     total energy              =   -3439.79965358 Ry
     estimated scf accuracy    <       0.00459501 Ry
     electrostatic embedding   =      -0.09752055 Ry
     cavitation energy         =       0.02048695 Ry
     PV energy                 =      -0.08347365 Ry
     correction to one-el term =     171.23159261 Ry

     iteration # 16     ecut=    50.00 Ry     beta= 0.70
     Davidson diagonalization with overlap
     ethr =  1.24E-06,  avg # of iterations = 15.0

     negative rho (up, down):  4.149E-04 0.000E+00

     add environment contribution to local potential
     Polarization accuracy = 8.2E-12, # of iterations =  41

     total cpu time spent up to now is    55586.0 secs

     total energy              =   -3439.80025949 Ry
     estimated scf accuracy    <       0.00037672 Ry
     electrostatic embedding   =      -0.09267371 Ry
     cavitation energy         =       0.02047448 Ry
     PV energy                 =      -0.08355428 Ry
     correction to one-el term =     172.30738356 Ry

     iteration # 17     ecut=    50.00 Ry     beta= 0.70
     Davidson diagonalization with overlap
     ethr =  1.02E-07,  avg # of iterations = 17.0

     negative rho (up, down):  7.728E-04 0.000E+00

     add environment contribution to local potential
     Polarization accuracy = 1.5E-12, # of iterations =  42

     total cpu time spent up to now is    55861.1 secs

     total energy              =   -3439.80040061 Ry
     estimated scf accuracy    <       0.00006757 Ry
     electrostatic embedding   =      -0.08982967 Ry
     cavitation energy         =       0.02046424 Ry
     PV energy                 =      -0.08357396 Ry
     correction to one-el term =     172.90174752 Ry

     iteration # 18     ecut=    50.00 Ry     beta= 0.70
     Davidson diagonalization with overlap
     ethr =  1.83E-08,  avg # of iterations =  2.0

     negative rho (up, down):  5.436E-04 0.000E+00

     add environment contribution to local potential
     Polarization accuracy = 1.6E-12, # of iterations =  42

     total cpu time spent up to now is    56113.3 secs

     total energy              =   -3439.80043097 Ry
     estimated scf accuracy    <       0.00001719 Ry
     electrostatic embedding   =      -0.08835359 Ry
     cavitation energy         =       0.02045260 Ry
     PV energy                 =      -0.08357046 Ry
     correction to one-el term =     173.21834775 Ry

     iteration # 19     ecut=    50.00 Ry     beta= 0.70
     Davidson diagonalization with overlap
     ethr =  4.65E-09,  avg # of iterations =  2.0

     negative rho (up, down):  4.429E-04 0.000E+00

     add environment contribution to local potential
     Polarization accuracy = 1.7E-12, # of iterations =  42

     total cpu time spent up to now is    56364.6 secs

     total energy              =   -3439.80043896 Ry
     estimated scf accuracy    <       0.00000720 Ry
     electrostatic embedding   =      -0.08763110 Ry
     cavitation energy         =       0.02044527 Ry
     PV energy                 =      -0.08356611 Ry
     correction to one-el term =     173.36719185 Ry

     iteration # 20     ecut=    50.00 Ry     beta= 0.70
     Davidson diagonalization with overlap
     ethr =  1.95E-09,  avg # of iterations =  2.0

     negative rho (up, down):  2.703E-04 0.000E+00

     add environment contribution to local potential
     Polarization accuracy = 1.7E-12, # of iterations =  42

     total cpu time spent up to now is    56623.0 secs

     total energy              =   -3439.80044014 Ry
     estimated scf accuracy    <       0.00000259 Ry
     electrostatic embedding   =      -0.08733385 Ry
     cavitation energy         =       0.02044168 Ry
     PV energy                 =      -0.08356262 Ry
     correction to one-el term =     173.42719446 Ry

     iteration # 21     ecut=    50.00 Ry     beta= 0.70
     Davidson diagonalization with overlap
     ethr =  6.99E-10,  avg # of iterations =  5.0

     negative rho (up, down):  1.879E-04 0.000E+00

     add environment contribution to local potential
     Polarization accuracy = 1.6E-12, # of iterations =  42

     total cpu time spent up to now is    56866.3 secs

     total energy              =   -3439.80044057 Ry
     estimated scf accuracy    <       0.00000116 Ry
     electrostatic embedding   =      -0.08721874 Ry
     cavitation energy         =       0.02043793 Ry
     PV energy                 =      -0.08355841 Ry
     correction to one-el term =     173.45516097 Ry

     iteration # 22     ecut=    50.00 Ry     beta= 0.70
     Davidson diagonalization with overlap
     ethr =  3.15E-10,  avg # of iterations =  2.0

     negative rho (up, down):  1.183E-04 0.000E+00

     add environment contribution to local potential
     Polarization accuracy = 1.6E-12, # of iterations =  42

     total cpu time spent up to now is    57192.6 secs

     total energy              =   -3439.80044068 Ry
     estimated scf accuracy    <       0.00000066 Ry
     electrostatic embedding   =      -0.08719676 Ry
     cavitation energy         =       0.02043640 Ry
     PV energy                 =      -0.08355597 Ry
     correction to one-el term =     173.45798704 Ry

     iteration # 23     ecut=    50.00 Ry     beta= 0.70
     Davidson diagonalization with overlap
     ethr =  1.78E-10,  avg # of iterations =  1.0

     negative rho (up, down):  1.327E-04 0.000E+00

     add environment contribution to local potential
     Polarization accuracy = 1.7E-12, # of iterations =  42

     total cpu time spent up to now is    57456.6 secs

     total energy              =   -3439.80044092 Ry
     estimated scf accuracy    <       0.00000028 Ry
     electrostatic embedding   =      -0.08720418 Ry
     cavitation energy         =       0.02043546 Ry
     PV energy                 =      -0.08355357 Ry
     correction to one-el term =     173.45213638 Ry

     iteration # 24     ecut=    50.00 Ry     beta= 0.70
     Davidson diagonalization with overlap
     ethr =  7.67E-11,  avg # of iterations =  2.0

     negative rho (up, down):  1.151E-04 0.000E+00

     add environment contribution to local potential
     Polarization accuracy = 6.3E-12, # of iterations =  42

     total cpu time spent up to now is    57726.7 secs

     total energy              =   -3439.80044151 Ry
     estimated scf accuracy    <       0.00000014 Ry
     electrostatic embedding   =      -0.08721825 Ry
     cavitation energy         =       0.02043535 Ry
     PV energy                 =      -0.08355233 Ry
     correction to one-el term =     173.44468742 Ry

     iteration # 25     ecut=    50.00 Ry     beta= 0.70
     Davidson diagonalization with overlap
     ethr =  3.87E-11,  avg # of iterations =  1.0

     negative rho (up, down):  1.124E-04 0.000E+00

     add environment contribution to local potential
     Polarization accuracy = 1.7E-12, # of iterations =  42

     total cpu time spent up to now is    58020.3 secs

     total energy              =   -3439.80044187 Ry
     estimated scf accuracy    <       0.00000011 Ry
     electrostatic embedding   =      -0.08722892 Ry
     cavitation energy         =       0.02043543 Ry
     PV energy                 =      -0.08355163 Ry
     correction to one-el term =     173.43952766 Ry

     iteration # 26     ecut=    50.00 Ry     beta= 0.70
     Davidson diagonalization with overlap
     ethr =  2.87E-11,  avg # of iterations =  1.0

     negative rho (up, down):  1.125E-04 0.000E+00

     add environment contribution to local potential
     Polarization accuracy = 1.7E-12, # of iterations =  42

     total cpu time spent up to now is    58299.2 secs

     total energy              =   -3439.80044215 Ry
     estimated scf accuracy    <       0.00000008 Ry
     electrostatic embedding   =      -0.08723383 Ry
     cavitation energy         =       0.02043570 Ry
     PV energy                 =      -0.08355161 Ry
     correction to one-el term =     173.43713769 Ry

     iteration # 27     ecut=    50.00 Ry     beta= 0.70
     Davidson diagonalization with overlap
     ethr =  2.17E-11,  avg # of iterations =  1.0

     negative rho (up, down):  1.016E-04 0.000E+00

     add environment contribution to local potential
     Polarization accuracy = 1.7E-12, # of iterations =  42

     total cpu time spent up to now is    58520.0 secs

     total energy              =   -3439.80044245 Ry
     estimated scf accuracy    <       0.00000007 Ry
     electrostatic embedding   =      -0.08723003 Ry
     cavitation energy         =       0.02043588 Ry
     PV energy                 =      -0.08355162 Ry
     correction to one-el term =     173.43707838 Ry

     iteration # 28     ecut=    50.00 Ry     beta= 0.70
     Davidson diagonalization with overlap
     ethr =  1.85E-11,  avg # of iterations =  1.0

     negative rho (up, down):  8.775E-05 0.000E+00

     add environment contribution to local potential
     Polarization accuracy = 1.7E-12, # of iterations =  42

     total cpu time spent up to now is    58787.6 secs

     total energy              =   -3439.80044307 Ry
     estimated scf accuracy    <       0.00000006 Ry
     electrostatic embedding   =      -0.08722753 Ry
     cavitation energy         =       0.02043620 Ry
     PV energy                 =      -0.08355172 Ry
     correction to one-el term =     173.43662253 Ry

     iteration # 29     ecut=    50.00 Ry     beta= 0.70
     Davidson diagonalization with overlap
     ethr =  1.69E-11,  avg # of iterations =  1.0

     negative rho (up, down):  7.965E-05 0.000E+00

     add environment contribution to local potential
     Polarization accuracy = 1.7E-12, # of iterations =  42

     total cpu time spent up to now is    59034.2 secs

     total energy              =   -3439.80044418 Ry
     estimated scf accuracy    <       0.00000006 Ry
     electrostatic embedding   =      -0.08722209 Ry
     cavitation energy         =       0.02043638 Ry
     PV energy                 =      -0.08355159 Ry
     correction to one-el term =     173.43640377 Ry

     iteration # 30     ecut=    50.00 Ry     beta= 0.70
     Davidson diagonalization with overlap
     ethr =  1.49E-11,  avg # of iterations =  2.0

     negative rho (up, down):  7.867E-05 0.000E+00

     add environment contribution to local potential
     Polarization accuracy = 1.6E-12, # of iterations =  42

     total cpu time spent up to now is    59273.4 secs

     total energy              =   -3439.80044638 Ry
     estimated scf accuracy    <       0.00000005 Ry
     electrostatic embedding   =      -0.08721840 Ry
     cavitation energy         =       0.02043644 Ry
     PV energy                 =      -0.08355161 Ry
     correction to one-el term =     173.43608194 Ry

     iteration # 31     ecut=    50.00 Ry     beta= 0.70
     Davidson diagonalization with overlap
     ethr =  1.26E-11,  avg # of iterations =  2.0

     negative rho (up, down):  8.418E-05 0.000E+00

     add environment contribution to local potential
     Polarization accuracy = 1.6E-12, # of iterations =  42

     total cpu time spent up to now is    59529.8 secs

     total energy              =   -3439.80044971 Ry
     estimated scf accuracy    <       0.00000004 Ry
     electrostatic embedding   =      -0.08721690 Ry
     cavitation energy         =       0.02043630 Ry
     PV energy                 =      -0.08355167 Ry
     correction to one-el term =     173.43568063 Ry

     iteration # 32     ecut=    50.00 Ry     beta= 0.70
     Davidson diagonalization with overlap
     ethr =  1.06E-11,  avg # of iterations =  5.0

     negative rho (up, down):  8.768E-05 0.000E+00

     add environment contribution to local potential
     Polarization accuracy = 1.6E-12, # of iterations =  42

     total cpu time spent up to now is    59797.2 secs

     total energy              =   -3439.80045296 Ry
     estimated scf accuracy    <       0.00000003 Ry
     electrostatic embedding   =      -0.08722073 Ry
     cavitation energy         =       0.02043622 Ry
     PV energy                 =      -0.08355179 Ry
     correction to one-el term =     173.43473694 Ry

     iteration # 33     ecut=    50.00 Ry     beta= 0.70
     Davidson diagonalization with overlap
     ethr =  8.47E-12,  avg # of iterations = 10.0

     negative rho (up, down):  1.003E-04 0.000E+00

     add environment contribution to local potential
     Polarization accuracy = 1.6E-12, # of iterations =  42

     total cpu time spent up to now is    60139.1 secs

     total energy              =   -3439.80045981 Ry
     estimated scf accuracy    <       0.00000003 Ry
     electrostatic embedding   =      -0.08722150 Ry
     cavitation energy         =       0.02043615 Ry
     PV energy                 =      -0.08355208 Ry
     correction to one-el term =     173.43473125 Ry

     iteration # 34     ecut=    50.00 Ry     beta= 0.70
     Davidson diagonalization with overlap
     ethr =  7.27E-12,  avg # of iterations =  2.0

     negative rho (up, down):  1.008E-04 0.000E+00

     add environment contribution to local potential
     Polarization accuracy = 1.6E-12, # of iterations =  42

     total cpu time spent up to now is    60422.4 secs

     total energy              =   -3439.80046520 Ry
     estimated scf accuracy    <          8.1E-09 Ry
     electrostatic embedding   =      -0.08722894 Ry
     cavitation energy         =       0.02043612 Ry
     PV energy                 =      -0.08355223 Ry
     correction to one-el term =     173.43453890 Ry

     iteration # 35     ecut=    50.00 Ry     beta= 0.70
     Davidson diagonalization with overlap
     ethr =  2.19E-12,  avg # of iterations =  5.0

     negative rho (up, down):  9.833E-05 0.000E+00

     add environment contribution to local potential
     Polarization accuracy = 8.9E-12, # of iterations =  41

     total cpu time spent up to now is    60653.0 secs

     total energy              =   -3439.80046975 Ry
     estimated scf accuracy    <          3.3E-09 Ry
     electrostatic embedding   =      -0.08723088 Ry
     cavitation energy         =       0.02043624 Ry
     PV energy                 =      -0.08355217 Ry
     correction to one-el term =     173.43482444 Ry

     iteration # 36     ecut=    50.00 Ry     beta= 0.70
     Davidson diagonalization with overlap
     ethr =  8.85E-13,  avg # of iterations =  3.0

     negative rho (up, down):  9.697E-05 0.000E+00

     add environment contribution to local potential
     Polarization accuracy = 4.6E-12, # of iterations =  41

     total cpu time spent up to now is    60879.0 secs

     total energy              =   -3439.80047197 Ry
     estimated scf accuracy    <          2.4E-09 Ry
     electrostatic embedding   =      -0.08722951 Ry
     cavitation energy         =       0.02043619 Ry
     PV energy                 =      -0.08355184 Ry
     correction to one-el term =     173.43567980 Ry

     iteration # 37     ecut=    50.00 Ry     beta= 0.70
     Davidson diagonalization with overlap
     ethr =  6.59E-13,  avg # of iterations =  2.0

     negative rho (up, down):  9.499E-05 0.000E+00

     add environment contribution to local potential
     Polarization accuracy = 1.6E-12, # of iterations =  42

     total cpu time spent up to now is    61162.3 secs

     total energy              =   -3439.80047231 Ry
     estimated scf accuracy    <          1.0E-09 Ry
     electrostatic embedding   =      -0.08722912 Ry
     cavitation energy         =       0.02043626 Ry
     PV energy                 =      -0.08355181 Ry
     correction to one-el term =     173.43564255 Ry

     iteration # 38     ecut=    50.00 Ry     beta= 0.70
     Davidson diagonalization with overlap
     ethr =  2.72E-13,  avg # of iterations =  2.0

     negative rho (up, down):  9.598E-05 0.000E+00

     the potential shift due to the Gaussian-smeared nuclei is    -1.3573 ev

     total cpu time spent up to now is    61345.9 secs

     End of self-consistent calculation

          k = 0.2500 0.2752 0.0000 ( 34780 PWs)   bands (ev):

   -75.8735 -75.8575 -75.6835 -75.6683 -75.5553 -75.5400 -75.4805 -75.4478
   -75.3424 -75.3005 -75.2849 -75.2833 -46.2550 -46.2390 -46.1235 -46.1084
   -45.9809 -45.9213 -45.9060 -45.9047 -45.8090 -45.7929 -45.6514 -45.6183
   -45.6014 -45.5918 -45.5795 -45.5682 -45.5602 -45.5440 -45.5173 -45.5018
   -45.4991 -45.4838 -45.4573 -45.4419 -45.3339 -45.3221 -45.3120 -45.3042
   -45.2918 -45.2465 -45.2420 -45.2275 -45.1642 -45.1076 -45.0920 -45.0790
   -25.8571 -25.8345 -25.7646 -25.7420 -22.2162 -22.1374 -21.9345 -21.8250
   -21.8049 -21.5739 -21.4499 -21.3970 -21.1851 -21.0895 -21.0684 -21.0569
   -20.9918 -20.9447 -20.8508 -20.8292 -20.8053 -20.7519 -20.5543 -20.4885
   -20.4542 -20.1875 -19.6388 -19.6027 -13.3149 -13.2925 -13.2629 -13.2405
   -10.9899 -10.8413 -10.7466 -10.7248 -10.3593 -10.3433 -10.1583  -9.8388
    -9.8230  -9.6159  -9.3794  -9.3681  -9.2703  -9.2421  -9.2396  -9.2180
    -9.2119  -9.1767  -9.0173  -9.0029  -8.9691  -8.9471  -8.9166  -8.7641
    -8.6072  -8.5599  -8.4729  -8.4383  -8.3446  -8.2147  -8.1770  -8.0526
    -7.9799  -7.9262  -7.8429  -7.6820  -7.6755  -7.6145  -7.6022  -7.5548
    -7.4191  -7.2948  -7.2525  -7.1153  -7.1006  -7.0685  -6.9990  -6.9631
    -6.9490  -6.7951  -6.6319  -6.5776  -6.5536  -6.4965  -6.4508  -6.4352
    -6.3208  -6.2438  -6.1629  -6.1309  -5.9678  -5.9528  -5.8748  -5.7591
    -5.6109  -5.5164  -5.4448  -5.3633  -5.3050  -5.2167  -5.1089  -5.0207
    -4.9588  -4.8650  -4.8370  -4.7057  -4.6209  -4.5865  -4.5758  -4.4276
    -3.5348  -3.2926  -3.2299  -3.1948  -3.1557  -3.1087  -2.9379  -2.9134
    -2.8844  -2.8672  -2.8593  -2.7927  -2.7841  -2.7628  -2.6751  -2.6320
    -2.5790  -2.5588  -2.4735  -2.4202  -2.3989  -2.3330  -2.1488  -2.0995
    -2.0368  -1.9606  -1.8166  -1.7220  -1.4808  -1.4234  -1.3458  -1.3387
    -1.1835  -1.1776  -1.0415  -1.0210  -0.8359  -0.7448  -0.4304  -0.1251
    -0.0348   0.0197   0.0726   0.2453   0.3257   0.8198   1.2025   1.2645
     1.3658   1.5154   1.6237   1.6417   1.6921   1.9154   1.9221   1.9667
     2.0558   2.1250   2.3212   2.3738   2.5284   2.8540

     the Fermi energy is    -1.9995 ev

!    total energy              =   -3439.80047293 Ry
     estimated scf accuracy    <          2.8E-10 Ry
     smearing contrib. (-TS)   =       0.05585222 Ry
     internal energy E=F+TS    =   -3439.85632515 Ry

     The total energy is F=E-TS. E is the sum of the following terms:
     one-electron contribution =  -25087.14895663 Ry
     hartree contribution      =   12549.29465998 Ry
     xc contribution           =    -452.07387340 Ry
     ewald contribution        =    9643.22756074 Ry
     one-center paw contrib.   =    -266.44133990 Ry
     electrostatic embedding   =      -0.08722745 Ry
     cavitation energy         =       0.02043623 Ry
     PV energy                 =      -0.08355167 Ry
     correction to one-el term =     173.43596694 Ry

     WARNING: you are using the parabolic pbc correction;
              the potential shift above must be added to 
              band and Fermi energies.

     convergence has been achieved in  38 iterations

     negative rho (up, down):  9.598E-05 0.000E+00

     Forces acting on atoms (cartesian axes, Ry/au):

     atom    1 type  1   force =     0.04027243    0.00000000   -0.01690549
     atom    2 type  1   force =    -0.00363056    0.00000000   -0.02760480
     atom    3 type  1   force =    -0.00256637    0.00000000    0.13757287
     atom    4 type  1   force =     0.00241149    0.00000000    0.13759876
     atom    5 type  2   force =     0.00188225    0.00000000    0.00992946
     atom    6 type  2   force =    -0.00187039    0.00000000    0.00747095
     atom    7 type  1   force =     0.00297358    0.09995907   -0.00626445
     atom    8 type  1   force =    -0.00165408    0.07647183   -0.00614084
     atom    9 type  2   force =    -0.00189123    0.00000000   -0.00243073
     atom   10 type  2   force =     0.00294487    0.00000000    0.01978549
     atom   11 type  1   force =     0.00297358   -0.09995907   -0.00626445
     atom   12 type  1   force =    -0.00165408   -0.07647183   -0.00614084
     atom   13 type  1   force =    -0.00127641    0.00000000    0.00200964
     atom   14 type  1   force =     0.00084900    0.00000000   -0.00082031
     atom   15 type  1   force =    -0.00299972    0.00000000   -0.00030544
     atom   16 type  1   force =     0.00171122    0.00000000    0.01929010
     atom   17 type  2   force =     0.01267243    0.00000000    0.00000000
     atom   18 type  2   force =    -0.01277606    0.00000000    0.00000000
     atom   19 type  1   force =    -0.00715175   -0.05343160    0.00000000
     atom   20 type  1   force =     0.00621273   -0.08990267    0.00000000
     atom   21 type  2   force =    -0.01240489    0.00000000    0.00000000
     atom   22 type  2   force =     0.01570629    0.00000000    0.00000000
     atom   23 type  1   force =    -0.00715175    0.05343160    0.00000000
     atom   24 type  1   force =     0.00621273    0.08990267    0.00000000
     atom   25 type  1   force =    -0.00299972    0.00000000    0.00030544
     atom   26 type  1   force =     0.00171122    0.00000000   -0.01929010
     atom   27 type  1   force =    -0.00127641    0.00000000   -0.00200964
     atom   28 type  1   force =     0.00084900    0.00000000    0.00082031
     atom   29 type  2   force =     0.00188225    0.00000000   -0.00992946
     atom   30 type  2   force =    -0.00187039    0.00000000   -0.00747095
     atom   31 type  1   force =     0.00297358    0.09995907    0.00626445
     atom   32 type  1   force =    -0.00165408    0.07647183    0.00614084
     atom   33 type  2   force =    -0.00189123    0.00000000    0.00243073
     atom   34 type  2   force =     0.00294487    0.00000000   -0.01978549
     atom   35 type  1   force =     0.00297358   -0.09995907    0.00626445
     atom   36 type  1   force =    -0.00165408   -0.07647183    0.00614084
     atom   37 type  1   force =    -0.00256637    0.00000000   -0.13757287
     atom   38 type  1   force =     0.00241149    0.00000000   -0.13759876
     atom   39 type  1   force =     0.04027243    0.00000000    0.01690549
     atom   40 type  1   force =    -0.00363056    0.00000000    0.02760480
     atom   41 type  3   force =    -0.03865898    0.00000000    0.00302066
     atom   42 type  3   force =    -0.03865898    0.00000000   -0.00302066
     atom   43 type  3   force =     0.00091779    0.12735597   -0.06657892
     atom   44 type  3   force =     0.00091779    0.12735597    0.06657892
     atom   45 type  3   force =    -0.00115602    0.12608183   -0.06698596
     atom   46 type  3   force =    -0.00115602    0.12608183    0.06698596
     atom   47 type  3   force =     0.00091779   -0.12735597   -0.06657892
     atom   48 type  3   force =     0.00091779   -0.12735597    0.06657892
     atom   49 type  3   force =    -0.00115602   -0.12608183   -0.06698596
     atom   50 type  3   force =    -0.00115602   -0.12608183    0.06698596
     The non-local contrib.  to forces
     atom    1 type  1   force =     1.58468944    0.00000000    0.52643731
     atom    2 type  1   force =    -0.01072754    0.00000000    0.96910718
     atom    3 type  1   force =     0.00759891    0.00000000   -1.55866736
     atom    4 type  1   force =    -0.00526965    0.00000000   -1.59375496
     atom    5 type  2   force =     0.00313231    0.00000000    0.01740282
     atom    6 type  2   force =    -0.00542190    0.00000000    0.02897388
     atom    7 type  1   force =     0.00677580   -0.08654581   -0.07408701
     atom    8 type  1   force =    -0.05342676   -0.08569545   -0.00833249
     atom    9 type  2   force =    -0.00598606    0.00000000    0.05133509
     atom   10 type  2   force =     0.00315164    0.00000000    0.01285853
     atom   11 type  1   force =     0.00677580    0.08654581   -0.07408701
     atom   12 type  1   force =    -0.05342676    0.08569545   -0.00833249
     atom   13 type  1   force =     0.01347634    0.00000000   -0.18086628
     atom   14 type  1   force =    -0.01620692    0.00000000   -0.19070855
     atom   15 type  1   force =    -0.01235312    0.00000000   -0.10241146
     atom   16 type  1   force =    -0.00419237    0.00000000    0.17601246
     atom   17 type  2   force =    -0.00634594    0.00000000    0.00000000
     atom   18 type  2   force =     0.00332247    0.00000000    0.00000000
     atom   19 type  1   force =     0.03601293    0.08671424    0.00000000
     atom   20 type  1   force =    -0.03195847    0.03094553    0.00000000
     atom   21 type  2   force =     0.01924807    0.00000000    0.00000000
     atom   22 type  2   force =    -0.02045921    0.00000000    0.00000000
     atom   23 type  1   force =     0.03601293   -0.08671424    0.00000000
     atom   24 type  1   force =    -0.03195847   -0.03094553    0.00000000
     atom   25 type  1   force =    -0.01235312    0.00000000    0.10241146
     atom   26 type  1   force =    -0.00419237    0.00000000   -0.17601246
     atom   27 type  1   force =     0.01347634    0.00000000    0.18086628
     atom   28 type  1   force =    -0.01620692    0.00000000    0.19070855
     atom   29 type  2   force =     0.00313231    0.00000000   -0.01740282
     atom   30 type  2   force =    -0.00542190    0.00000000   -0.02897388
     atom   31 type  1   force =     0.00677580   -0.08654581    0.07408701
     atom   32 type  1   force =    -0.05342676   -0.08569545    0.00833249
     atom   33 type  2   force =    -0.00598606    0.00000000   -0.05133509
     atom   34 type  2   force =     0.00315164    0.00000000   -0.01285853
     atom   35 type  1   force =     0.00677580    0.08654581    0.07408701
     atom   36 type  1   force =    -0.05342676    0.08569545    0.00833249
     atom   37 type  1   force =     0.00759891    0.00000000    1.55866736
     atom   38 type  1   force =    -0.00526965    0.00000000    1.59375496
     atom   39 type  1   force =     1.58468944    0.00000000   -0.52643731
     atom   40 type  1   force =    -0.01072754    0.00000000   -0.96910718
     atom   41 type  3   force =    -0.08994735    0.00000000    0.01178383
     atom   42 type  3   force =    -0.08994735    0.00000000   -0.01178383
     atom   43 type  3   force =    -0.00105014   -0.10887339    0.08091221
     atom   44 type  3   force =    -0.00105014   -0.10887339   -0.08091221
     atom   45 type  3   force =     0.00112502   -0.10809536    0.08314964
     atom   46 type  3   force =     0.00112502   -0.10809536   -0.08314964
     atom   47 type  3   force =    -0.00105014    0.10887339    0.08091221
     atom   48 type  3   force =    -0.00105014    0.10887339   -0.08091221
     atom   49 type  3   force =     0.00112502    0.10809536    0.08314964
     atom   50 type  3   force =     0.00112502    0.10809536   -0.08314964
     The ionic contribution  to forces
     atom    1 type  1   force =    -3.49055740    0.00000012  -94.65719257
     atom    2 type  1   force =     0.61677296    0.00000013  -98.53824952
     atom    3 type  1   force =    -0.28477899   -0.00000019  -87.81314686
     atom    4 type  1   force =     0.25787810   -0.00000019  -87.71033884
     atom    5 type  2   force =     0.37169090   -0.00000239 -165.44244432
     atom    6 type  2   force =    -0.38438600   -0.00000221 -167.29215553
     atom    7 type  1   force =     0.41646028    1.26478154  -62.83387420
     atom    8 type  1   force =    -0.06107481    1.10906984  -65.28377449
     atom    9 type  2   force =    -1.93070061    0.00000290 -166.98445027
     atom   10 type  2   force =     1.70702668    0.00000246 -172.59477690
     atom   11 type  1   force =     0.41646029   -1.26478117  -62.83387196
     atom   12 type  1   force =    -0.06107482   -1.10906945  -65.28377251
     atom   13 type  1   force =    -0.24577676   -0.00000163  -38.24358285
     atom   14 type  1   force =     0.26978967   -0.00000163  -38.41809537
     atom   15 type  1   force =    -0.16768380    0.00000920  -24.78671061
     atom   16 type  1   force =     0.22790828    0.00000844  -27.53495712
     atom   17 type  2   force =     0.02004419    0.00001273   -0.00048343
     atom   18 type  2   force =    -0.01180323    0.00001431   -0.00048306
     atom   19 type  1   force =    -0.29192204   -0.44441087   -0.00009048
     atom   20 type  1   force =     0.25522038   -0.77975512   -0.00008618
     atom   21 type  2   force =     0.63149141    0.00012028   -0.00026584
     atom   22 type  2   force =    -0.79105355    0.00012500   -0.00025493
     atom   23 type  1   force =    -0.29192227    0.44426336   -0.00009048
     atom   24 type  1   force =     0.25522125    0.77959882   -0.00008618
     atom   25 type  1   force =    -0.16768165    0.00000920   24.78649119
     atom   26 type  1   force =     0.22791149    0.00000844   27.53481665
     atom   27 type  1   force =    -0.24577551   -0.00000163   38.24386794
     atom   28 type  1   force =     0.26978864   -0.00000163   38.41838255
     atom   29 type  2   force =     0.37168825   -0.00000239  165.44277249
     atom   30 type  2   force =    -0.38438338   -0.00000221  167.29248353
     atom   31 type  1   force =     0.41646026    1.26475332   62.83394822
     atom   32 type  1   force =    -0.06107364    1.10904668   65.28385297
     atom   33 type  2   force =    -1.93071656    0.00000290  166.98460122
     atom   34 type  2   force =     1.70703605    0.00000246  172.59495273
     atom   35 type  1   force =     0.41646027   -1.26475295   62.83394599
     atom   36 type  1   force =    -0.06107366   -1.10904630   65.28385099
     atom   37 type  1   force =    -0.28479065   -0.00000019   87.81309564
     atom   38 type  1   force =     0.25788959   -0.00000019   87.71027622
     atom   39 type  1   force =    -3.49058316    0.00000012   94.65733056
     atom   40 type  1   force =     0.61677549    0.00000013   98.53832862
     atom   41 type  3   force =     2.47999439    0.00000002  -15.75604953
     atom   42 type  3   force =     2.48002113    0.00000002   15.75603007
     atom   43 type  3   force =    -0.06061332    2.77712012  -17.24285482
     atom   44 type  3   force =    -0.06061023    2.77739351   17.24291536
     atom   45 type  3   force =     0.04781898    2.75404382  -17.29932693
     atom   46 type  3   force =     0.04781583    2.75431843   17.29939461
     atom   47 type  3   force =    -0.06061332   -2.77712015  -17.24285479
     atom   48 type  3   force =    -0.06061023   -2.77739354   17.24291534
     atom   49 type  3   force =     0.04781898   -2.75404385  -17.29932691
     atom   50 type  3   force =     0.04781583   -2.75431846   17.29939458
     The local contribution  to forces
     atom    1 type  1   force =     1.90534345   -0.00000000   94.01621194
     atom    2 type  1   force =    -0.56361054    0.00000000   97.44930421
     atom    3 type  1   force =     0.26507872    0.00000000   89.59068312
     atom    4 type  1   force =    -0.24152106   -0.00000000   89.53821401
     atom    5 type  2   force =    -0.37661430    0.00000000  165.48886073
     atom    6 type  2   force =     0.39200397    0.00000000  167.31011523
     atom    7 type  1   force =    -0.42126644   -1.06036858   62.89976711
     atom    8 type  1   force =     0.11341140   -0.92280950   65.26715514
     atom    9 type  2   force =     1.91094394   -0.00000000  166.87531135
     atom   10 type  2   force =    -1.67989468    0.00000000  172.54256998
     atom   11 type  1   force =    -0.42126644    1.06036858   62.89976711
     atom   12 type  1   force =     0.11341140    0.92280950   65.26715514
     atom   13 type  1   force =     0.22951485    0.00000000   38.42804621
     atom   14 type  1   force =    -0.25124705   -0.00000000   38.61037305
     atom   15 type  1   force =     0.17560519   -0.00000000   24.88446353
     atom   16 type  1   force =    -0.22065634    0.00000000   27.37735633
     atom   17 type  2   force =    -0.00257980   -0.00000000   -0.00578736
     atom   18 type  2   force =    -0.00273535    0.00000000   -0.00581535
     atom   19 type  1   force =     0.24892102    0.30503194   -0.00245159
     atom   20 type  1   force =    -0.21715594    0.65885621   -0.00247264
     atom   21 type  2   force =    -0.66340352   -0.00000000   -0.00606004
     atom   22 type  2   force =     0.82762133   -0.00000000   -0.00609460
     atom   23 type  1   force =     0.24892123   -0.30537465   -0.00245158
     atom   24 type  1   force =    -0.21715678   -0.65919271   -0.00247264
     atom   25 type  1   force =     0.17561270   -0.00000000  -24.88622953
     atom   26 type  1   force =    -0.22065413    0.00000000  -27.37910303
     atom   27 type  1   force =     0.22951512    0.00000000  -38.42982122
     atom   28 type  1   force =    -0.25124793   -0.00000000  -38.61214547
     atom   29 type  2   force =    -0.37660745    0.00000000 -165.49492927
     atom   30 type  2   force =     0.39199667   -0.00000000 -167.31616079
     atom   31 type  1   force =    -0.42124578   -1.06031153  -62.90221266
     atom   32 type  1   force =     0.11338747   -0.92276864  -65.26961124
     atom   33 type  2   force =     1.91097339   -0.00000000 -166.88114595
     atom   34 type  2   force =    -1.67993413   -0.00000000 -172.54827250
     atom   35 type  1   force =    -0.42124578    1.06031153  -62.90221266
     atom   36 type  1   force =     0.11338747    0.92276864  -65.26961124
     atom   37 type  1   force =     0.26509005    0.00000000  -89.59437605
     atom   38 type  1   force =    -0.24153215   -0.00000000  -89.54190502
     atom   39 type  1   force =     1.90536073    0.00000000  -94.01781134
     atom   40 type  1   force =    -0.56365124   -0.00000000  -97.45076310
     atom   41 type  3   force =    -2.43070992    0.00000000   15.73219165
     atom   42 type  3   force =    -2.43070992    0.00000000  -15.73219165
     atom   43 type  3   force =     0.06037236   -2.52325031   17.11819510
     atom   44 type  3   force =     0.06037236   -2.52325031  -17.11819510
     atom   45 type  3   force =    -0.04845297   -2.50268473   17.17741265
     atom   46 type  3   force =    -0.04845297   -2.50268473  -17.17741265
     atom   47 type  3   force =     0.06037236    2.52325031   17.11819510
     atom   48 type  3   force =     0.06037236    2.52325031  -17.11819510
     atom   49 type  3   force =    -0.04845297    2.50268473   17.17741265
     atom   50 type  3   force =    -0.04845297    2.50268473  -17.17741265
     The core correction contribution to forces
     atom    1 type  1   force =    -0.01603136   -0.00000000   -0.00552664
     atom    2 type  1   force =     0.00028556    0.00000000   -0.00849502
     atom    3 type  1   force =    -0.00000137    0.00000000    0.01255193
     atom    4 type  1   force =    -0.00002288   -0.00000000    0.01281429
     atom    5 type  2   force =     0.00000000    0.00000000    0.00000000
     atom    6 type  2   force =     0.00000000    0.00000000    0.00000000
     atom    7 type  1   force =    -0.00025552   -0.00081348    0.00091074
     atom    8 type  1   force =     0.00070114   -0.00046657    0.00028271
     atom    9 type  2   force =     0.00000000    0.00000000    0.00000000
     atom   10 type  2   force =     0.00000000    0.00000000    0.00000000
     atom   11 type  1   force =    -0.00025552    0.00081348    0.00091074
     atom   12 type  1   force =     0.00070114    0.00046657    0.00028271
     atom   13 type  1   force =    -0.00016036   -0.00000000    0.00271473
     atom   14 type  1   force =     0.00017961    0.00000000    0.00282811
     atom   15 type  1   force =     0.00016458    0.00000000    0.00084190
     atom   16 type  1   force =     0.00004174   -0.00000000   -0.00260128
     atom   17 type  2   force =     0.00000000    0.00000000    0.00000000
     atom   18 type  2   force =     0.00000000    0.00000000    0.00000000
     atom   19 type  1   force =    -0.00029550    0.00029203   -0.00000210
     atom   20 type  1   force =     0.00025111    0.00122841   -0.00000218
     atom   21 type  2   force =     0.00000000    0.00000000    0.00000000
     atom   22 type  2   force =     0.00000000    0.00000000    0.00000000
     atom   23 type  1   force =    -0.00029551   -0.00029252   -0.00000210
     atom   24 type  1   force =     0.00025111   -0.00122887   -0.00000218
     atom   25 type  1   force =     0.00016456    0.00000000   -0.00084420
     atom   26 type  1   force =     0.00004179    0.00000000    0.00259913
     atom   27 type  1   force =    -0.00016036    0.00000000   -0.00271679
     atom   28 type  1   force =     0.00017962    0.00000000   -0.00283020
     atom   29 type  2   force =     0.00000000    0.00000000    0.00000000
     atom   30 type  2   force =     0.00000000    0.00000000    0.00000000
     atom   31 type  1   force =    -0.00025546   -0.00081321   -0.00091281
     atom   32 type  1   force =     0.00070106   -0.00046627   -0.00028477
     atom   33 type  2   force =     0.00000000    0.00000000    0.00000000
     atom   34 type  2   force =     0.00000000    0.00000000    0.00000000
     atom   35 type  1   force =    -0.00025546    0.00081321   -0.00091281
     atom   36 type  1   force =     0.00070106    0.00046627   -0.00028477
     atom   37 type  1   force =    -0.00000145    0.00000000   -0.01255600
     atom   38 type  1   force =    -0.00002280   -0.00000000   -0.01281839
     atom   39 type  1   force =    -0.01603199    0.00000000    0.00552453
     atom   40 type  1   force =     0.00028555    0.00000000    0.00849279
     atom   41 type  3   force =     0.00000000    0.00000000    0.00000000
     atom   42 type  3   force =     0.00000000    0.00000000    0.00000000
     atom   43 type  3   force =     0.00000000    0.00000000    0.00000000
     atom   44 type  3   force =     0.00000000    0.00000000    0.00000000
     atom   45 type  3   force =     0.00000000    0.00000000    0.00000000
     atom   46 type  3   force =     0.00000000    0.00000000    0.00000000
     atom   47 type  3   force =     0.00000000    0.00000000    0.00000000
     atom   48 type  3   force =     0.00000000    0.00000000    0.00000000
     atom   49 type  3   force =     0.00000000    0.00000000    0.00000000
     atom   50 type  3   force =     0.00000000    0.00000000    0.00000000
     The Hubbard contrib.    to forces
     atom    1 type  1   force =     0.00000000    0.00000000    0.00000000
     atom    2 type  1   force =     0.00000000    0.00000000    0.00000000
     atom    3 type  1   force =     0.00000000    0.00000000    0.00000000
     atom    4 type  1   force =     0.00000000    0.00000000    0.00000000
     atom    5 type  2   force =     0.00000000    0.00000000    0.00000000
     atom    6 type  2   force =     0.00000000    0.00000000    0.00000000
     atom    7 type  1   force =     0.00000000    0.00000000    0.00000000
     atom    8 type  1   force =     0.00000000    0.00000000    0.00000000
     atom    9 type  2   force =     0.00000000    0.00000000    0.00000000
     atom   10 type  2   force =     0.00000000    0.00000000    0.00000000
     atom   11 type  1   force =     0.00000000    0.00000000    0.00000000
     atom   12 type  1   force =     0.00000000    0.00000000    0.00000000
     atom   13 type  1   force =     0.00000000    0.00000000    0.00000000
     atom   14 type  1   force =     0.00000000    0.00000000    0.00000000
     atom   15 type  1   force =     0.00000000    0.00000000    0.00000000
     atom   16 type  1   force =     0.00000000    0.00000000    0.00000000
     atom   17 type  2   force =     0.00000000    0.00000000    0.00000000
     atom   18 type  2   force =     0.00000000    0.00000000    0.00000000
     atom   19 type  1   force =     0.00000000    0.00000000    0.00000000
     atom   20 type  1   force =     0.00000000    0.00000000    0.00000000
     atom   21 type  2   force =     0.00000000    0.00000000    0.00000000
     atom   22 type  2   force =     0.00000000    0.00000000    0.00000000
     atom   23 type  1   force =     0.00000000    0.00000000    0.00000000
     atom   24 type  1   force =     0.00000000    0.00000000    0.00000000
     atom   25 type  1   force =     0.00000000    0.00000000    0.00000000
     atom   26 type  1   force =     0.00000000    0.00000000    0.00000000
     atom   27 type  1   force =     0.00000000    0.00000000    0.00000000
     atom   28 type  1   force =     0.00000000    0.00000000    0.00000000
     atom   29 type  2   force =     0.00000000    0.00000000    0.00000000
     atom   30 type  2   force =     0.00000000    0.00000000    0.00000000
     atom   31 type  1   force =     0.00000000    0.00000000    0.00000000
     atom   32 type  1   force =     0.00000000    0.00000000    0.00000000
     atom   33 type  2   force =     0.00000000    0.00000000    0.00000000
     atom   34 type  2   force =     0.00000000    0.00000000    0.00000000
     atom   35 type  1   force =     0.00000000    0.00000000    0.00000000
     atom   36 type  1   force =     0.00000000    0.00000000    0.00000000
     atom   37 type  1   force =     0.00000000    0.00000000    0.00000000
     atom   38 type  1   force =     0.00000000    0.00000000    0.00000000
     atom   39 type  1   force =     0.00000000    0.00000000    0.00000000
     atom   40 type  1   force =     0.00000000    0.00000000    0.00000000
     atom   41 type  3   force =     0.00000000    0.00000000    0.00000000
     atom   42 type  3   force =     0.00000000    0.00000000    0.00000000
     atom   43 type  3   force =     0.00000000    0.00000000    0.00000000
     atom   44 type  3   force =     0.00000000    0.00000000    0.00000000
     atom   45 type  3   force =     0.00000000    0.00000000    0.00000000
     atom   46 type  3   force =     0.00000000    0.00000000    0.00000000
     atom   47 type  3   force =     0.00000000    0.00000000    0.00000000
     atom   48 type  3   force =     0.00000000    0.00000000    0.00000000
     atom   49 type  3   force =     0.00000000    0.00000000    0.00000000
     atom   50 type  3   force =     0.00000000    0.00000000    0.00000000
     The SCF correction term to forces
     atom    1 type  1   force =     0.00000506   -0.00000001   -0.00000326
     atom    2 type  1   force =    -0.00000235   -0.00000001    0.00000038
     atom    3 type  1   force =    -0.00000131    0.00000002    0.00001044
     atom    4 type  1   force =     0.00000169    0.00000002    0.00000059
     atom    5 type  2   force =     0.00001969    0.00000010    0.00001186
     atom    6 type  2   force =    -0.00002012    0.00000010    0.00000869
     atom    7 type  1   force =     0.00000863    0.00000583    0.00000110
     atom    8 type  1   force =    -0.00000871    0.00000436    0.00000228
     atom    9 type  2   force =     0.00000481   -0.00000009    0.00000838
     atom   10 type  2   force =    -0.00000541   -0.00000009   -0.00000077
     atom   11 type  1   force =     0.00000863   -0.00000585    0.00000107
     atom   12 type  1   force =    -0.00000871   -0.00000438    0.00000226
     atom   13 type  1   force =     0.00000052    0.00000005    0.00000560
     atom   14 type  1   force =    -0.00000063    0.00000005    0.00000865
     atom   15 type  1   force =    -0.00000004   -0.00000006    0.00000603
     atom   16 type  1   force =    -0.00000005   -0.00000006    0.00000220
     atom   17 type  2   force =     0.00000044    0.00000019    0.00000868
     atom   18 type  2   force =    -0.00000114    0.00000019    0.00000874
     atom   19 type  1   force =     0.00000825   -0.00000223    0.00000309
     atom   20 type  1   force =    -0.00000821   -0.00000135    0.00000314
     atom   21 type  2   force =     0.00001034   -0.00000020    0.00000835
     atom   22 type  2   force =    -0.00001069   -0.00000020    0.00000847
     atom   23 type  1   force =     0.00000825    0.00000228    0.00000309
     atom   24 type  1   force =    -0.00000821    0.00000140    0.00000314
     atom   25 type  1   force =    -0.00000009   -0.00000006   -0.00000227
     atom   26 type  1   force =     0.00000001   -0.00000006    0.00000103
     atom   27 type  1   force =     0.00000042    0.00000005   -0.00000457
     atom   28 type  1   force =    -0.00000053    0.00000005   -0.00000761
     atom   29 type  2   force =     0.00001977    0.00000010   -0.00001922
     atom   30 type  2   force =    -0.00002020    0.00000010   -0.00001616
     atom   31 type  1   force =     0.00000862    0.00000546   -0.00000398
     atom   32 type  1   force =    -0.00000870    0.00000400   -0.00000519
     atom   33 type  2   force =     0.00000443   -0.00000009   -0.00001644
     atom   34 type  2   force =    -0.00000502   -0.00000009   -0.00000799
     atom   35 type  1   force =     0.00000862   -0.00000548   -0.00000396
     atom   36 type  1   force =    -0.00000870   -0.00000402   -0.00000517
     atom   37 type  1   force =    -0.00000142    0.00000002   -0.00001323
     atom   38 type  1   force =     0.00000181    0.00000002   -0.00000339
     atom   39 type  1   force =     0.00000485   -0.00000001    0.00000138
     atom   40 type  1   force =    -0.00000220   -0.00000001   -0.00000228
     atom   41 type  3   force =     0.00000148   -0.00000000    0.00000012
     atom   42 type  3   force =     0.00000152   -0.00000000   -0.00000039
     atom   43 type  3   force =     0.00000000    0.00000137   -0.00000020
     atom   44 type  3   force =    -0.00000001    0.00000138   -0.00000008
     atom   45 type  3   force =     0.00000005    0.00000018    0.00000048
     atom   46 type  3   force =     0.00000007    0.00000019   -0.00000075
     atom   47 type  3   force =     0.00000000   -0.00000136   -0.00000020
     atom   48 type  3   force =    -0.00000001   -0.00000138   -0.00000008
     atom   49 type  3   force =     0.00000005   -0.00000018    0.00000048
     atom   50 type  3   force =     0.00000007   -0.00000019   -0.00000075

     Total force =     0.580247     Total SCF correction =     0.000073

     BFGS Geometry Optimization
     Energy error            =      0.0E+00 Ry
     Gradient error          =      1.4E-01 Ry/Bohr

     number of scf cycles    =   1
     number of bfgs steps    =   0

     energy             new  =   -3439.8004729343 Ry

     new trust radius        =       0.1437119929 bohr
     new conv_thr            =       0.0000000010 Ry


ATOMIC_POSITIONS (crystal)
O             0.0268079661        0.5000000000        0.2657126585
O             0.4740602150        0.5000000000        0.2687787321
O            -0.0023792623        0.0000000000        0.2909625068
O             0.4967352405        0.0000000000        0.2905997630
Ru            0.2473711075        0.0000000000        0.3612152780
Ru            0.7469018694        0.0000000000        0.3596861363
O             0.2447025332        0.3094193778        0.3566761530
O             0.7507393312        0.3109630007        0.3537077116
Ru           -0.0008295856        0.5000000000        0.3572585536
Ru            0.4990106776        0.5000000000        0.3507743649
O             0.2447025332        0.6905806222        0.3566761530
O             0.7507393312        0.6890369993        0.3537077116
O            -0.0048450550        0.0000000000        0.4128043089
O             0.4988319639        0.0000000000        0.4126862813
O            -0.0029649957        0.5000000000        0.4455200561
O             0.4964924814        0.5000000000        0.4404936224
Ru           -0.0040762955        0.0000000000        0.5000010000
Ru            0.4979518393        0.0000000000        0.5000010000
O             0.2480627938        0.1879552904        0.5000010000
O             0.7456754592        0.1891148805        0.5000010000
Ru            0.2527654299        0.5000000000        0.5000010000
Ru            0.7427461260        0.5000000000        0.5000010000
O             0.2480627938        0.8120457096        0.5000010000
O             0.7456754592        0.8108861195        0.5000010000
O            -0.0029649957        0.5000000000        0.5544809439
O             0.4964924814        0.5000000000        0.5595073776
O            -0.0048450550        0.0000000000        0.5871966911
O             0.4988319639        0.0000000000        0.5873147187
Ru            0.2473711075        0.0000000000        0.6387857220
Ru            0.7469018694        0.0000000000        0.6403148637
O             0.2447025332        0.3094193778        0.6433248470
O             0.7507393312        0.3109630007        0.6462932884
Ru           -0.0008295856        0.5000000000        0.6427424464
Ru            0.4990106776        0.5000000000        0.6492266351
O             0.2447025332        0.6905806222        0.6433248470
O             0.7507393312        0.6890369993        0.6462932884
O            -0.0023792623        0.0000000000        0.7090394932
O             0.4967352405        0.0000000000        0.7094022370
O             0.0268079661        0.5000000000        0.7342883415
O             0.4740602150        0.5000000000        0.7312222679
H             0.1744301517        0.5000000000        0.2604811209
H             0.1744301517        0.5000000000        0.7395188791
H            -0.0009328283        0.1344717728        0.2608182944
H            -0.0009328283        0.1344717728        0.7391817056
H             0.4952811752        0.1330653181        0.2600605626
H             0.4952811752        0.1330653181        0.7399394374
H            -0.0009328283        0.8655282272        0.2608182944
H            -0.0009328283        0.8655282272        0.7391817056
H             0.4952811752        0.8669346819        0.2600605626
H             0.4952811752        0.8669346819        0.7399394374



     Writing config-only to output data dir /storage/home/mgm6007/ixd4/Maria/StrainJin_Files/RuO2-110-0-02345/RuO2-110-0-02345.save/
     NEW-OLD atomic charge density approx. for the potential

     Check: negative core charge=   -0.000001

     negative rho (up, down):  8.457E-05 0.000E+00

     add environment contribution to local potential
     Polarization accuracy = 3.4E-12, # of iterations =  41

     total cpu time spent up to now is    61657.1 secs

     per-process dynamical memory:   204.4 Mb

     Self-consistent Calculation

     iteration #  1     ecut=    50.00 Ry     beta= 0.70
     Davidson diagonalization with overlap
     ethr =  1.00E-06,  avg # of iterations = 12.0

     negative rho (up, down):  5.251E-04 0.000E+00

     total cpu time spent up to now is    61896.1 secs

     total energy              =   -3439.86456030 Ry
     estimated scf accuracy    <       0.15403283 Ry
     electrostatic embedding   =      -0.08333636 Ry
     cavitation energy         =       0.02036342 Ry
     PV energy                 =      -0.08390202 Ry
     correction to one-el term =     173.41055401 Ry

     iteration #  2     ecut=    50.00 Ry     beta= 0.70
     Davidson diagonalization with overlap
     ethr =  4.16E-05,  avg # of iterations =  2.0

     negative rho (up, down):  4.401E-04 0.000E+00

     total cpu time spent up to now is    62149.5 secs

     total energy              =   -3439.87284896 Ry
     estimated scf accuracy    <       0.20388171 Ry
     electrostatic embedding   =      -0.08280182 Ry
     cavitation energy         =       0.02043892 Ry
     PV energy                 =      -0.08381477 Ry
     correction to one-el term =     173.40895268 Ry

     iteration #  3     ecut=    50.00 Ry     beta= 0.70
     Davidson diagonalization with overlap
     ethr =  4.16E-05,  avg # of iterations =  1.0

     negative rho (up, down):  4.921E-04 0.000E+00

     add environment contribution to local potential
     Polarization accuracy = 6.6E-12, # of iterations =  41

     total cpu time spent up to now is    62449.9 secs

     total energy              =   -3439.88123901 Ry
     estimated scf accuracy    <       0.01886021 Ry
     electrostatic embedding   =      -0.08286549 Ry
     cavitation energy         =       0.02042041 Ry
     PV energy                 =      -0.08386035 Ry
     correction to one-el term =     173.40868034 Ry

     iteration #  4     ecut=    50.00 Ry     beta= 0.70
     Davidson diagonalization with overlap
     ethr =  5.10E-06,  avg # of iterations =  5.0

     negative rho (up, down):  3.282E-04 0.000E+00

     add environment contribution to local potential
     Polarization accuracy = 5.9E-12, # of iterations =  41

     total cpu time spent up to now is    62701.2 secs

     total energy              =   -3439.88120091 Ry
     estimated scf accuracy    <       0.01027165 Ry
     electrostatic embedding   =      -0.08247262 Ry
     cavitation energy         =       0.02040123 Ry
     PV energy                 =      -0.08389676 Ry
     correction to one-el term =     174.53679531 Ry

     iteration #  5     ecut=    50.00 Ry     beta= 0.70
     Davidson diagonalization with overlap
     ethr =  2.78E-06,  avg # of iterations =  2.0

     negative rho (up, down):  1.668E-04 0.000E+00

     add environment contribution to local potential
     Polarization accuracy = 5.1E-12, # of iterations =  41

     total cpu time spent up to now is    63009.5 secs

     total energy              =   -3439.88168683 Ry
     estimated scf accuracy    <       0.00123642 Ry
     electrostatic embedding   =      -0.08276519 Ry
     cavitation energy         =       0.02038179 Ry
     PV energy                 =      -0.08393468 Ry
     correction to one-el term =     174.47537772 Ry

     iteration #  6     ecut=    50.00 Ry     beta= 0.70
     Davidson diagonalization with overlap
     ethr =  3.34E-07,  avg # of iterations =  2.0

     negative rho (up, down):  6.208E-05 0.000E+00

     add environment contribution to local potential
     Polarization accuracy = 4.6E-12, # of iterations =  41

     total cpu time spent up to now is    63263.5 secs

     total energy              =   -3439.88179199 Ry
     estimated scf accuracy    <       0.00084109 Ry
     electrostatic embedding   =      -0.08320970 Ry
     cavitation energy         =       0.02036795 Ry
     PV energy                 =      -0.08395151 Ry
     correction to one-el term =     174.36795943 Ry

     iteration #  7     ecut=    50.00 Ry     beta= 0.70
     Davidson diagonalization with overlap
     ethr =  2.27E-07,  avg # of iterations =  1.0

     negative rho (up, down):  1.160E-05 0.000E+00

     add environment contribution to local potential
     Polarization accuracy = 4.7E-12, # of iterations =  41

     total cpu time spent up to now is    63520.8 secs

     total energy              =   -3439.88179823 Ry
     estimated scf accuracy    <       0.00027315 Ry
     electrostatic embedding   =      -0.08361043 Ry
     cavitation energy         =       0.02035822 Ry
     PV energy                 =      -0.08396119 Ry
     correction to one-el term =     174.23016667 Ry

     iteration #  8     ecut=    50.00 Ry     beta= 0.70
     Davidson diagonalization with overlap
     ethr =  7.38E-08,  avg # of iterations =  2.0

     negative rho (up, down):  2.328E-06 0.000E+00

     add environment contribution to local potential
     Polarization accuracy = 2.9E-12, # of iterations =  41

     total cpu time spent up to now is    63814.1 secs

     total energy              =   -3439.88179983 Ry
     estimated scf accuracy    <       0.00035626 Ry
     electrostatic embedding   =      -0.08420249 Ry
     cavitation energy         =       0.02035336 Ry
     PV energy                 =      -0.08396110 Ry
     correction to one-el term =     174.02818665 Ry

     iteration #  9     ecut=    50.00 Ry     beta= 0.70
     Davidson diagonalization with overlap
     ethr =  7.38E-08,  avg # of iterations = 12.0

     negative rho (up, down):  1.255E-06 0.000E+00

     add environment contribution to local potential
     Polarization accuracy = 2.0E-12, # of iterations =  41

     total cpu time spent up to now is    64103.6 secs

     total energy              =   -3439.88180094 Ry
     estimated scf accuracy    <       0.00006729 Ry
     electrostatic embedding   =      -0.08476826 Ry
     cavitation energy         =       0.02035270 Ry
     PV energy                 =      -0.08395592 Ry
     correction to one-el term =     173.83425991 Ry

     iteration # 10     ecut=    50.00 Ry     beta= 0.70
     Davidson diagonalization with overlap
     ethr =  1.82E-08,  avg # of iterations =  2.0

     negative rho (up, down):  1.245E-06 0.000E+00

     add environment contribution to local potential
     Polarization accuracy = 3.1E-12, # of iterations =  41

     total cpu time spent up to now is    64394.8 secs

     total energy              =   -3439.88180136 Ry
     estimated scf accuracy    <       0.00001929 Ry
     electrostatic embedding   =      -0.08524012 Ry
     cavitation energy         =       0.02035987 Ry
     PV energy                 =      -0.08394066 Ry
     correction to one-el term =     173.68977375 Ry

     iteration # 11     ecut=    50.00 Ry     beta= 0.70
     Davidson diagonalization with overlap
     ethr =  5.21E-09,  avg # of iterations =  2.0

     negative rho (up, down):  2.416E-06 0.000E+00

     add environment contribution to local potential
     Polarization accuracy = 3.6E-12, # of iterations =  41

     total cpu time spent up to now is    64671.8 secs

     total energy              =   -3439.88180224 Ry
     estimated scf accuracy    <       0.00000646 Ry
     electrostatic embedding   =      -0.08543797 Ry
     cavitation energy         =       0.02036534 Ry
     PV energy                 =      -0.08393019 Ry
     correction to one-el term =     173.63417260 Ry

     iteration # 12     ecut=    50.00 Ry     beta= 0.70
     Davidson diagonalization with overlap
     ethr =  1.75E-09,  avg # of iterations =  2.0

     negative rho (up, down):  5.819E-06 0.000E+00

     add environment contribution to local potential
     Polarization accuracy = 3.6E-12, # of iterations =  41

     total cpu time spent up to now is    64986.4 secs

     total energy              =   -3439.88180405 Ry
     estimated scf accuracy    <       0.00000191 Ry
     electrostatic embedding   =      -0.08553670 Ry
     cavitation energy         =       0.02037138 Ry
     PV energy                 =      -0.08391918 Ry
     correction to one-el term =     173.61506165 Ry

     iteration # 13     ecut=    50.00 Ry     beta= 0.70
     Davidson diagonalization with overlap
     ethr =  5.16E-10,  avg # of iterations =  4.0

     negative rho (up, down):  1.254E-05 0.000E+00

     add environment contribution to local potential
     Polarization accuracy = 3.6E-12, # of iterations =  41

[...]
     atom   25 type  1   force =     0.18273771    0.00000000  -25.42018386
     atom   26 type  1   force =    -0.23661581   -0.00000000  -27.14819802
     atom   27 type  1   force =     0.24152696   -0.00000000  -38.51679038
     atom   28 type  1   force =    -0.31037304   -0.00000000  -38.58528570
     atom   29 type  2   force =    -0.22349957    0.00000000 -165.17788841
     atom   30 type  2   force =     0.34866040   -0.00000000 -166.41281227
     atom   31 type  1   force =    -0.31738981    0.66076928  -62.75087204
     atom   32 type  1   force =     0.06236972    0.45765774  -65.25624804
     atom   33 type  2   force =     1.98104520    0.00000000 -167.92797811
     atom   34 type  2   force =    -1.78354231    0.00000000 -171.98451002
     atom   35 type  1   force =    -0.31738981   -0.66076928  -62.75087204
     atom   36 type  1   force =     0.06236972   -0.45765774  -65.25624804
     atom   37 type  1   force =     0.26470234    0.00000000  -90.23964041
     atom   38 type  1   force =    -0.30592142    0.00000000  -90.20431756
     atom   39 type  1   force =     2.01876111    0.00000000  -93.56763066
     atom   40 type  1   force =    -0.62742755   -0.00000000  -96.96564863
     atom   41 type  3   force =    -2.62217510   -0.00000000   15.74281309
     atom   42 type  3   force =    -2.62217510    0.00000000  -15.74281309
     atom   43 type  3   force =     0.07378661   -2.15380926   16.73829989
     atom   44 type  3   force =     0.07378661   -2.15380926  -16.73829989
     atom   45 type  3   force =    -0.03632856   -2.14491169   16.81031988
     atom   46 type  3   force =    -0.03632856   -2.14491169  -16.81031988
     atom   47 type  3   force =     0.07378661    2.15380926   16.73829989
     atom   48 type  3   force =     0.07378661    2.15380926  -16.73829989
     atom   49 type  3   force =    -0.03632856    2.14491169   16.81031988
     atom   50 type  3   force =    -0.03632856    2.14491169  -16.81031988
     The core correction contribution to forces
     atom    1 type  1   force =    -0.01587113    0.00000000   -0.00576955
     atom    2 type  1   force =     0.00007518   -0.00000000   -0.00932453
     atom    3 type  1   force =    -0.00010299   -0.00000000    0.01287362
     atom    4 type  1   force =     0.00042373   -0.00000000    0.01313290
     atom    5 type  2   force =     0.00000000    0.00000000    0.00000000
     atom    6 type  2   force =     0.00000000    0.00000000    0.00000000
     atom    7 type  1   force =    -0.00019186    0.00045699    0.00072997
     atom    8 type  1   force =     0.00055604    0.00063314   -0.00001666
     atom    9 type  2   force =     0.00000000    0.00000000    0.00000000
     atom   10 type  2   force =     0.00000000    0.00000000    0.00000000
     atom   11 type  1   force =    -0.00019186   -0.00045699    0.00072997
     atom   12 type  1   force =     0.00055604   -0.00063314   -0.00001666
     atom   13 type  1   force =    -0.00010740   -0.00000000    0.00227401
     atom   14 type  1   force =     0.00019721   -0.00000000    0.00226279
     atom   15 type  1   force =     0.00016856    0.00000000    0.00068703
     atom   16 type  1   force =    -0.00006245   -0.00000000   -0.00223959
     atom   17 type  2   force =     0.00000000    0.00000000    0.00000000
     atom   18 type  2   force =     0.00000000    0.00000000    0.00000000
     atom   19 type  1   force =    -0.00015128   -0.00033500   -0.00000202
     atom   20 type  1   force =     0.00014870   -0.00028064   -0.00000203
     atom   21 type  2   force =     0.00000000    0.00000000    0.00000000
     atom   22 type  2   force =     0.00000000    0.00000000    0.00000000
     atom   23 type  1   force =    -0.00015128    0.00033449   -0.00000202
     atom   24 type  1   force =     0.00014871    0.00028013   -0.00000203
     atom   25 type  1   force =     0.00016854   -0.00000000   -0.00068943
     atom   26 type  1   force =    -0.00006243   -0.00000000    0.00223741
     atom   27 type  1   force =    -0.00010739    0.00000000   -0.00227603
     atom   28 type  1   force =     0.00019722    0.00000000   -0.00226481
     atom   29 type  2   force =     0.00000000    0.00000000    0.00000000
     atom   30 type  2   force =     0.00000000    0.00000000    0.00000000
     atom   31 type  1   force =    -0.00019179    0.00045726   -0.00073192
     atom   32 type  1   force =     0.00055596    0.00063345    0.00001467
     atom   33 type  2   force =     0.00000000    0.00000000    0.00000000
     atom   34 type  2   force =     0.00000000    0.00000000    0.00000000
     atom   35 type  1   force =    -0.00019179   -0.00045726   -0.00073192
     atom   36 type  1   force =     0.00055596   -0.00063345    0.00001467
     atom   37 type  1   force =    -0.00010306   -0.00000000   -0.01287770
     atom   38 type  1   force =     0.00042384    0.00000000   -0.01313701
     atom   39 type  1   force =    -0.01587176    0.00000000    0.00576737
     atom   40 type  1   force =     0.00007518    0.00000000    0.00932206
     atom   41 type  3   force =     0.00000000    0.00000000    0.00000000
     atom   42 type  3   force =     0.00000000    0.00000000    0.00000000
     atom   43 type  3   force =     0.00000000    0.00000000    0.00000000
     atom   44 type  3   force =     0.00000000    0.00000000    0.00000000
     atom   45 type  3   force =     0.00000000    0.00000000    0.00000000
     atom   46 type  3   force =     0.00000000    0.00000000    0.00000000
     atom   47 type  3   force =     0.00000000    0.00000000    0.00000000
     atom   48 type  3   force =     0.00000000    0.00000000    0.00000000
     atom   49 type  3   force =     0.00000000    0.00000000    0.00000000
     atom   50 type  3   force =     0.00000000    0.00000000    0.00000000
     The Hubbard contrib.    to forces
     atom    1 type  1   force =     0.00000000    0.00000000    0.00000000
     atom    2 type  1   force =     0.00000000    0.00000000    0.00000000
     atom    3 type  1   force =     0.00000000    0.00000000    0.00000000
     atom    4 type  1   force =     0.00000000    0.00000000    0.00000000
     atom    5 type  2   force =     0.00000000    0.00000000    0.00000000
     atom    6 type  2   force =     0.00000000    0.00000000    0.00000000
     atom    7 type  1   force =     0.00000000    0.00000000    0.00000000
     atom    8 type  1   force =     0.00000000    0.00000000    0.00000000
     atom    9 type  2   force =     0.00000000    0.00000000    0.00000000
     atom   10 type  2   force =     0.00000000    0.00000000    0.00000000
     atom   11 type  1   force =     0.00000000    0.00000000    0.00000000
     atom   12 type  1   force =     0.00000000    0.00000000    0.00000000
     atom   13 type  1   force =     0.00000000    0.00000000    0.00000000
     atom   14 type  1   force =     0.00000000    0.00000000    0.00000000
     atom   15 type  1   force =     0.00000000    0.00000000    0.00000000
     atom   16 type  1   force =     0.00000000    0.00000000    0.00000000
     atom   17 type  2   force =     0.00000000    0.00000000    0.00000000
     atom   18 type  2   force =     0.00000000    0.00000000    0.00000000
     atom   19 type  1   force =     0.00000000    0.00000000    0.00000000
     atom   20 type  1   force =     0.00000000    0.00000000    0.00000000
     atom   21 type  2   force =     0.00000000    0.00000000    0.00000000
     atom   22 type  2   force =     0.00000000    0.00000000    0.00000000
     atom   23 type  1   force =     0.00000000    0.00000000    0.00000000
     atom   24 type  1   force =     0.00000000    0.00000000    0.00000000
     atom   25 type  1   force =     0.00000000    0.00000000    0.00000000
     atom   26 type  1   force =     0.00000000    0.00000000    0.00000000
     atom   27 type  1   force =     0.00000000    0.00000000    0.00000000
     atom   28 type  1   force =     0.00000000    0.00000000    0.00000000
     atom   29 type  2   force =     0.00000000    0.00000000    0.00000000
     atom   30 type  2   force =     0.00000000    0.00000000    0.00000000
     atom   31 type  1   force =     0.00000000    0.00000000    0.00000000
     atom   32 type  1   force =     0.00000000    0.00000000    0.00000000
     atom   33 type  2   force =     0.00000000    0.00000000    0.00000000
     atom   34 type  2   force =     0.00000000    0.00000000    0.00000000
     atom   35 type  1   force =     0.00000000    0.00000000    0.00000000
     atom   36 type  1   force =     0.00000000    0.00000000    0.00000000
     atom   37 type  1   force =     0.00000000    0.00000000    0.00000000
     atom   38 type  1   force =     0.00000000    0.00000000    0.00000000
     atom   39 type  1   force =     0.00000000    0.00000000    0.00000000
     atom   40 type  1   force =     0.00000000    0.00000000    0.00000000
     atom   41 type  3   force =     0.00000000    0.00000000    0.00000000
     atom   42 type  3   force =     0.00000000    0.00000000    0.00000000
     atom   43 type  3   force =     0.00000000    0.00000000    0.00000000
     atom   44 type  3   force =     0.00000000    0.00000000    0.00000000
     atom   45 type  3   force =     0.00000000    0.00000000    0.00000000
     atom   46 type  3   force =     0.00000000    0.00000000    0.00000000
     atom   47 type  3   force =     0.00000000    0.00000000    0.00000000
     atom   48 type  3   force =     0.00000000    0.00000000    0.00000000
     atom   49 type  3   force =     0.00000000    0.00000000    0.00000000
     atom   50 type  3   force =     0.00000000    0.00000000    0.00000000
     The SCF correction term to forces
     atom    1 type  1   force =     0.00000052    0.00000000   -0.00000171
     atom    2 type  1   force =    -0.00000058    0.00000000   -0.00000075
     atom    3 type  1   force =     0.00000260    0.00000000   -0.00000133
     atom    4 type  1   force =    -0.00000262    0.00000000   -0.00000085
     atom    5 type  2   force =     0.00000061    0.00000000   -0.00000408
     atom    6 type  2   force =    -0.00000032    0.00000000   -0.00000139
     atom    7 type  1   force =     0.00000090   -0.00000055   -0.00000124
     atom    8 type  1   force =    -0.00000074    0.00000091   -0.00000062
     atom    9 type  2   force =     0.00000188   -0.00000000   -0.00000208
     atom   10 type  2   force =    -0.00000216    0.00000000   -0.00000194
     atom   11 type  1   force =     0.00000090    0.00000055   -0.00000124
     atom   12 type  1   force =    -0.00000074   -0.00000091   -0.00000062
     atom   13 type  1   force =     0.00000120    0.00000000   -0.00000076
     atom   14 type  1   force =    -0.00000120    0.00000000   -0.00000058
     atom   15 type  1   force =     0.00000000   -0.00000000   -0.00000010
     atom   16 type  1   force =     0.00000008    0.00000000   -0.00000063
     atom   17 type  2   force =     0.00000100    0.00000000    0.00000003
     atom   18 type  2   force =    -0.00000045    0.00000000    0.00000003
     atom   19 type  1   force =     0.00000025    0.00000004    0.00000001
     atom   20 type  1   force =    -0.00000069    0.00000068    0.00000001
     atom   21 type  2   force =     0.00000097   -0.00000000    0.00000003
     atom   22 type  2   force =    -0.00000144   -0.00000000    0.00000003
     atom   23 type  1   force =     0.00000025   -0.00000004    0.00000001
     atom   24 type  1   force =    -0.00000069   -0.00000068    0.00000001
     atom   25 type  1   force =     0.00000000    0.00000000    0.00000013
     atom   26 type  1   force =     0.00000008   -0.00000000    0.00000065
     atom   27 type  1   force =     0.00000120   -0.00000000    0.00000077
     atom   28 type  1   force =    -0.00000121    0.00000000    0.00000059
     atom   29 type  2   force =     0.00000061    0.00000000    0.00000409
     atom   30 type  2   force =    -0.00000032    0.00000000    0.00000140
     atom   31 type  1   force =     0.00000090   -0.00000055    0.00000124
     atom   32 type  1   force =    -0.00000074    0.00000091    0.00000063
     atom   33 type  2   force =     0.00000188   -0.00000000    0.00000209
     atom   34 type  2   force =    -0.00000216   -0.00000000    0.00000194
     atom   35 type  1   force =     0.00000090    0.00000055    0.00000124
     atom   36 type  1   force =    -0.00000074   -0.00000091    0.00000063
     atom   37 type  1   force =     0.00000260   -0.00000000    0.00000132
     atom   38 type  1   force =    -0.00000262   -0.00000000    0.00000084
     atom   39 type  1   force =     0.00000052   -0.00000000    0.00000170
     atom   40 type  1   force =    -0.00000058   -0.00000000    0.00000073
     atom   41 type  3   force =     0.00000009   -0.00000000   -0.00000019
     atom   42 type  3   force =     0.00000009    0.00000000    0.00000019
     atom   43 type  3   force =     0.00000025   -0.00000004   -0.00000018
     atom   44 type  3   force =     0.00000025   -0.00000004    0.00000018
     atom   45 type  3   force =    -0.00000024    0.00000004   -0.00000015
     atom   46 type  3   force =    -0.00000024    0.00000004    0.00000015
     atom   47 type  3   force =     0.00000025    0.00000004   -0.00000018
     atom   48 type  3   force =     0.00000025    0.00000004    0.00000018
     atom   49 type  3   force =    -0.00000024   -0.00000004   -0.00000015
     atom   50 type  3   force =    -0.00000024   -0.00000004    0.00000015

     Total force =     0.000292     Total SCF correction =     0.000012
     Energy error            =      2.7E-07 Ry
     Gradient error          =      7.6E-05 Ry/Bohr

     bfgs converged in  31 scf cycles and  30 bfgs steps
     (criteria: energy <  1.0E-04 Ry, force <  1.0E-04 Ry/Bohr)

     End of BFGS Geometry Optimization

     Final energy             =   -3439.9398545466 Ry

     File /storage/home/mgm6007/ixd4/Maria/StrainJin_Files/RuO2-110-0-02345/RuO2-110-0-02345.bfgs deleted, as requested
Begin final coordinates

ATOMIC_POSITIONS (crystal)
O             0.0226627831        0.5000000000        0.2633436404
O             0.4763992547        0.5000000000        0.2675402177
O            -0.0016483742        0.0000000000        0.2902386815
O             0.4964657079        0.0000000000        0.2903148395
Ru            0.2475976484        0.0000000000        0.3608863155
Ru            0.7480662862        0.0000000000        0.3598110026
O             0.2467178446        0.3107838055        0.3563443034
O             0.7498458352        0.3120093963        0.3532032843
Ru           -0.0004212571        0.5000000000        0.3560443421
Ru            0.4988649018        0.5000000000        0.3499926432
O             0.2467178446        0.6892161945        0.3563443034
O             0.7498458352        0.6879906037        0.3532032843
O            -0.0036204359        0.0000000000        0.4123977031
O             0.4986201641        0.0000000000        0.4124267081
O            -0.0037580544        0.5000000000        0.4454188568
O             0.4972513852        0.5000000000        0.4426840693
Ru           -0.0030578628        0.0000000000        0.5000010000
Ru            0.4974825850        0.0000000000        0.5000010000
O             0.2472560285        0.1868989037        0.5000010000
O             0.7469876287        0.1870874698        0.5000010000
Ru            0.2502983759        0.5000000000        0.5000010000
Ru            0.7447033014        0.5000000000        0.5000010000
O             0.2472560285        0.8131020963        0.5000010000
O             0.7469876287        0.8129135302        0.5000010000
O            -0.0037580544        0.5000000000        0.5545821432
O             0.4972513852        0.5000000000        0.5573169307
O            -0.0036204359        0.0000000000        0.5876032969
O             0.4986201641        0.0000000000        0.5875742919
Ru            0.2475976484        0.0000000000        0.6391146845
Ru            0.7480662862        0.0000000000        0.6401899974
O             0.2467178446        0.3107838055        0.6436566966
O             0.7498458352        0.3120093963        0.6467977157
Ru           -0.0004212571        0.5000000000        0.6439566579
Ru            0.4988649018        0.5000000000        0.6500083568
O             0.2467178446        0.6892161945        0.6436566966
O             0.7498458352        0.6879906037        0.6467977157
O            -0.0016483742        0.0000000000        0.7097633185
O             0.4964657079        0.0000000000        0.7096871605
O             0.0226627831        0.5000000000        0.7366573596
O             0.4763992547        0.5000000000        0.7324607823
H             0.1720369674        0.5000000000        0.2570360497
H             0.1720369674        0.5000000000        0.7429639503
H            -0.0004421937        0.1389242374        0.2652670401
H            -0.0004421937        0.1389242374        0.7347329599
H             0.4939590969        0.1378100952        0.2651035228
H             0.4939590969        0.1378100952        0.7348964772
H            -0.0004421937        0.8610757626        0.2652670401
H            -0.0004421937        0.8610757626        0.7347329599
H             0.4939590969        0.8621899048        0.2651035228
H             0.4939590969        0.8621899048        0.7348964772
End final coordinates



     Writing all to output data dir /storage/home/mgm6007/ixd4/Maria/StrainJin_Files/RuO2-110-0-02345/RuO2-110-0-02345.save/
 
     init_run     :    518.29s CPU  51448.33s WALL (       1 calls)
     electrons    :  72012.68s CPU 145029.50s WALL (      31 calls)
     update_pot   :     50.70s CPU     50.75s WALL (      30 calls)
     forces       :     47.53s CPU     47.94s WALL (      31 calls)

     Called by init_run:
     wfcinit      :      0.47s CPU      0.50s WALL (       1 calls)
     potinit      :    479.71s CPU  49990.48s WALL (       1 calls)
     hinit0       :     34.21s CPU   1452.16s WALL (       1 calls)

     Called by electrons:
     c_bands      :    694.37s CPU    694.82s WALL (     575 calls)
     sum_band     :    146.31s CPU    146.47s WALL (     575 calls)
     v_of_rho     :     79.19s CPU     79.35s WALL (     582 calls)
     newd         :     40.66s CPU     40.70s WALL (     582 calls)
     PAW_pot      :     70.52s CPU     70.53s WALL (     612 calls)
     mix_rho      :    374.81s CPU    374.98s WALL (     575 calls)

     Called by c_bands:
     init_us_2    :      7.92s CPU      7.93s WALL (    1181 calls)
     init_us_2:cp :      7.91s CPU      7.93s WALL (    1181 calls)
     cegterg      :    667.86s CPU    668.22s WALL (     575 calls)

     Called by *egterg:
     cdiaghg      :     86.40s CPU     86.48s WALL (    1702 calls)
     h_psi        :    340.47s CPU    340.72s WALL (    1757 calls)
     s_psi        :     54.10s CPU     54.10s WALL (    1757 calls)
     g_psi        :      1.66s CPU      1.66s WALL (    1181 calls)

     Called by h_psi:
     h_psi:calbec :     54.07s CPU     54.08s WALL (    1757 calls)
     vloc_psi     :    227.69s CPU    227.92s WALL (    1757 calls)
     add_vuspsi   :     54.52s CPU     54.53s WALL (    1757 calls)

     General routines
     calbec       :     85.48s CPU     85.50s WALL (    2486 calls)
     fft          :  16417.29s CPU  16418.06s WALL (    7899 calls)
     ffts         :    139.93s CPU    139.94s WALL (  223865 calls)
     fftw         :    212.09s CPU    212.23s WALL (  670194 calls)
     interpolate  :  16375.11s CPU  16375.63s WALL (     582 calls)
 
     Parallel routines
 
     Environ routines
 
     PWSCF        :     21h16m CPU   2d 8h41m WALL

 
   This run was terminated on:  20: 4:16  28Jul2023            

=------------------------------------------------------------------------------=
   JOB DONE.
=------------------------------------------------------------------------------=
