
     Program PWSCF v.7.2 starts on 21Jul2023 at 11:31:16 
        Git branch: heads/qe-7.2
        Last git commit: b4c5e8deeb7d1863e7553a87b45f8d22c21926a5
        Last git commit date: Mon Mar 27 16:12:09 2023 +0000
        Last git commit subject: Merge branch 'merge_fix_hubbard' into 'develop'

     This program is part of the open-source Quantum ESPRESSO suite
     for quantum simulation of materials; please cite
         "P. Giannozzi et al., J. Phys.:Condens. Matter 21 395502 (2009);
         "P. Giannozzi et al., J. Phys.:Condens. Matter 29 465901 (2017);
         "P. Giannozzi et al., J. Chem. Phys. 152 154105 (2020);
          URL http://www.quantum-espresso.org", 
     in publications or presentations arising from this work. More details at
     http://www.quantum-espresso.org/quote

     Parallel version (MPI), running on    20 processors

     MPI processes distributed on     1 nodes
     104600 MiB available memory on the printing compute node when the environment starts
 
     Reading input from RuO2-110-0-01234.in

     Current dimensions of program PWSCF are:
     Max number of different atomic species (ntypx) = 10
     Max number of k-points (npk) =  40000
     Max angular momentum in pseudopotentials (lmaxx) =  4
 
     Reading input from environ.in:
     * Environ restarting
     * setting up water environment
     * using electronic solvent mode
     * setting boundary derivatives method to SCCS default
     
     file O.pbe-n-kjpaw_psl.0.1.UPF: wavefunction(s)  2P renormalized
     Message from routine setup:
     using ibrav=0 with symmetry is DISCOURAGED, use correct ibrav instead
 
     R & G space division:  proc/nbgrp/npool/nimage =      20
     Subspace diagonalization in iterative solution of the eigenvalue problem:
     one sub-group per band group will be used
     scalapack distributed-memory algorithm (size of sub-group:  2*  2 procs)

 
     Parallelization info
     --------------------
     sticks:   dense  smooth     PW     G-vecs:    dense   smooth      PW
     Min         282     113     29                56190    14217    1913
     Max         283     114     30                56201    14227    1932
     Sum        5657    2263    593              1123933   284439   38425
 
     Using Slab Decomposition
 


     bravais-lattice index     =            0
     lattice parameter (alat)  =      12.1041  a.u.
     unit-cell volume          =    5954.5483 (a.u.)^3
     number of atoms/cell      =           50
     number of atomic types    =            3
     number of electrons       =       370.00
     number of Kohn-Sham states=          222
     kinetic-energy cutoff     =      50.0000  Ry
     charge density cutoff     =     500.0000  Ry
     scf convergence threshold =      1.0E-09
     mixing beta               =       0.7000
     number of iterations used =            8  local-TF  mixing
     energy convergence thresh.=      1.0E-04
     force convergence thresh. =      1.0E-04
     Exchange-correlation= PBE
                           (   1   4   3   4   0   0   0)
     nstep                     =          200


     ================================================================================
 
                                  Environ Setup Summary

     ================================================================================
 
     Please cite

          O. Andreussi, I. Dabo and N. Marzari, J. Chem. Phys. 136, 064102 (2012)

     in publications or presentations arising from this work.

     ================================================================================
 
     Parameters
     ==========

     compensation onset threshold      =               0.1000E+00
     static permittivity               =                    78.30
     surface tension in input (dyn/cm) =                    47.90
     surface tension in internal units =               0.6153E-04
     external pressure in input (GPa)  =                    -0.36
     external pressure in inter. units =              -0.2447E-04

     Solvent Boundary
     ================

     solvent mode                      =               electronic
     derivatives method                =                    chain
     numerical core for derivatives    =                      fft
     switching function adopted        =                     SCCS
     density limit for vacuum region   =               0.5000E-02
     density limit for bulk solvent    =               0.1000E-03

     Electrostatic Setup
     ===================

     electrostatic problem to solve    =              generalized
     numerical solver adopted          =                       cg
     type of auxiliary density adopted =                     none
     numerical core for poisson        =                      fft
     type of pbc corrections           =                parabolic
     numerical core for corrections    =                      1da

     ================================================================================
 

     celldm(1)=  12.104053  celldm(2)=   0.000000  celldm(3)=   0.000000
     celldm(4)=   0.000000  celldm(5)=   0.000000  celldm(6)=   0.000000

     crystal axes: (cart. coord. in units of alat)
               a(1) = (   1.000000   0.000000   0.000000 )  
               a(2) = (   0.000000   0.971735   0.000000 )  
               a(3) = (   0.000000   0.000000   3.455479 )  

     reciprocal axes: (cart. coord. in units 2 pi/alat)
               b(1) = (  1.000000  0.000000  0.000000 )  
               b(2) = (  0.000000  1.029087  0.000000 )  
               b(3) = (  0.000000  0.000000  0.289395 )  


     PseudoPot. # 1 for O  read from file:
     /gpfs/group/ixd4/default/Simon/pseudopotentials/materialscloud/SSSP_1.3.0_PBE_efficiency/O.pbe-n-kjpaw_psl.0.1.UPF
     MD5 check sum: 0234752ac141de4415c5fc33072bef88
     Pseudo is Projector augmented-wave + core cor, Zval =  6.0
     Generated using "atomic" code by A. Dal Corso  v.5.0.99 svn rev. 10869
     Shape of augmentation charge: BESSEL
     Using radial grid of 1095 points,  4 beta functions with: 
                l(1) =   0
                l(2) =   0
                l(3) =   1
                l(4) =   1
     Q(r) pseudized with 0 coefficients 


     PseudoPot. # 2 for Ru read from file:
     /gpfs/group/ixd4/default/Simon/pseudopotentials/materialscloud/SSSP_1.3.0_PBE_efficiency/Ru_ONCV_PBE-1.0.oncvpsp.upf
     MD5 check sum: be037bb81c227cfb9b1461a9f099f4bd
     Pseudo is Norm-conserving, Zval = 16.0
     Generated using ONCVPSP code by D. R. Hamann
     Using radial grid of 1458 points,  6 beta functions with: 
                l(1) =   0
                l(2) =   0
                l(3) =   1
                l(4) =   1
                l(5) =   2
                l(6) =   2

     PseudoPot. # 3 for H  read from file:
     /gpfs/group/ixd4/default/Simon/pseudopotentials/materialscloud/SSSP_1.3.0_PBE_efficiency/H.pbe-rrkjus_psl.1.0.0.UPF
     MD5 check sum: f52b6d4d1c606e5624b1dc7b2218f220
     Pseudo is Ultrasoft, Zval =  1.0
     Generated using "atomic" code by A. Dal Corso  v.5.1
     Using radial grid of  929 points,  2 beta functions with: 
                l(1) =   0
                l(2) =   0
     Q(r) pseudized with 0 coefficients 


     atomic species   valence    mass     pseudopotential
        O              6.00    15.99940     O ( 1.00)
        Ru            16.00   101.07000     Ru( 1.00)
        H              1.00     1.00794     H ( 1.00)

      2 Sym. Ops. (no inversion) found



   Cartesian axes

     site n.     atom                  positions (alat units)
         1           O   tau(   1) = (   0.0405757   0.4251936   0.9064855  )
         2           O   tau(   2) = (   0.4564738   0.4192848   0.9202919  )
         3           O   tau(   3) = (  -0.0010160   0.0133221   1.0265502  )
         4           O   tau(   4) = (   0.4969067   0.0123952   1.0336311  )
         5           Ru  tau(   5) = (   0.2483419  -0.0075822   1.2393311  )
         6           Ru  tau(   6) = (   0.7480010  -0.0082287   1.2365427  )
         7           O   tau(   7) = (   0.2475741   0.2838096   1.2514406  )
         8           O   tau(   8) = (   0.7496737   0.2922014   1.2377880  )
         9           Ru  tau(   9) = (   0.0034238   0.4768308   1.2441801  )
        10           Ru  tau(  10) = (   0.4933857   0.4755936   1.2333178  )
        11           O   tau(  11) = (   0.2470595   0.6717810   1.2228121  )
        12           O   tau(  12) = (   0.7497529   0.6635138   1.2141936  )
        13           O   tau(  13) = (  -0.0036563  -0.0111858   1.4228977  )
        14           O   tau(  14) = (   0.4996244  -0.0088772   1.4212702  )
        15           O   tau(  15) = (  -0.0024047   0.4916164   1.5410663  )
        16           O   tau(  16) = (   0.4993397   0.4914896   1.5329890  )
        17           Ru  tau(  17) = (  -0.0028380   0.0021320   1.7277432  )
        18           Ru  tau(  18) = (   0.4993253   0.0021048   1.7277432  )
        19           O   tau(  19) = (   0.2485968   0.1903511   1.7277432  )
        20           O   tau(  20) = (   0.7474699   0.1925039   1.7277432  )
        21           Ru  tau(  21) = (   0.2516543   0.4894964   1.7277432  )
        22           Ru  tau(  22) = (   0.7452230   0.4903092   1.7277432  )
        23           O   tau(  23) = (   0.2495027   0.7871386   1.7277432  )
        24           O   tau(  24) = (   0.7472806   0.7855697   1.7277432  )
        25           O   tau(  25) = (  -0.0024047   0.4916164   1.9144166  )
        26           O   tau(  26) = (   0.4993397   0.4914896   1.9224940  )
        27           O   tau(  27) = (  -0.0036563  -0.0111858   2.0325853  )
        28           O   tau(  28) = (   0.4996244  -0.0088772   2.0342128  )
        29           Ru  tau(  29) = (   0.2483419  -0.0075822   2.2161518  )
        30           Ru  tau(  30) = (   0.7480010  -0.0082287   2.2189402  )
        31           O   tau(  31) = (   0.2475741   0.2838096   2.2040424  )
        32           O   tau(  32) = (   0.7496737   0.2922014   2.2176949  )
        33           Ru  tau(  33) = (   0.0034238   0.4768308   2.2113029  )
        34           Ru  tau(  34) = (   0.4933857   0.4755936   2.2221651  )
        35           O   tau(  35) = (   0.2470595   0.6717810   2.2326709  )
        36           O   tau(  36) = (   0.7497529   0.6635138   2.2412893  )
        37           O   tau(  37) = (  -0.0010160   0.0133221   2.4289362  )
        38           O   tau(  38) = (   0.4969067   0.0123952   2.4218553  )
        39           O   tau(  39) = (   0.0405757   0.4251936   2.5489974  )
        40           O   tau(  40) = (   0.4564738   0.4192848   2.5351911  )
        41           H   tau(  41) = (   0.1995373   0.4317394   0.8886478  )
        42           H   tau(  42) = (   0.1995373   0.4317394   2.5668317  )
        43           H   tau(  43) = (   0.5655914   0.4784036   0.8342859  )
        44           H   tau(  44) = (   0.5655914   0.4784036   2.6211936  )
        45           H   tau(  45) = (   0.0094425   0.2815657   0.9033972  )
        46           H   tau(  46) = (   0.0094425   0.2815657   2.5520823  )
        47           H   tau(  47) = (   0.4943102   0.1461224   0.9680624  )
        48           H   tau(  48) = (   0.4943102   0.1461224   2.4874171  )
        49           H   tau(  49) = (   0.0002254   0.8819473   0.9200231  )
        50           H   tau(  50) = (   0.0002254   0.8819473   2.5354564  )

     number of k points=     2  Marzari-Vanderbilt smearing, width (Ry)=  0.0300
                       cart. coord. in units 2pi/alat
        k(    1) = (   0.2500000   0.2572717   0.0000000), wk =   1.0000000
        k(    2) = (  -0.2500000   0.2572717   0.0000000), wk =   1.0000000

     Dense  grid:  1123933 G-vectors     FFT dimensions: (  90,  90, 300)

     Smooth grid:   284439 G-vectors     FFT dimensions: (  60,  54, 192)

     Estimated max dynamical RAM per process >     185.23 MB

     Estimated total dynamical RAM >       3.62 GB

     Check: negative core charge=   -0.000001

     Initial potential from superposition of free atoms

     starting charge     369.9932, renormalised to     370.0000

     add environment contribution to local potential
     Polarization accuracy = 6.0E-12, # of iterations =  24

     negative rho (up, down):  2.496E-05 0.000E+00
     Starting wfcs are  242 randomized atomic wfcs
     Checking if some PAW data can be deallocated... 

     total cpu time spent up to now is     1087.5 secs

     per-process dynamical memory:   158.2 Mb

     Self-consistent Calculation

     iteration #  1     ecut=    50.00 Ry     beta= 0.70
     Davidson diagonalization with overlap
     ethr =  1.00E-02,  avg # of iterations =  3.0

     negative rho (up, down):  3.075E-08 0.000E+00

     total cpu time spent up to now is     1392.6 secs

     total energy              =   -3438.39489809 Ry
     estimated scf accuracy    <       8.44952239 Ry
     electrostatic embedding   =      -0.00192865 Ry
     cavitation energy         =       0.02002063 Ry
     PV energy                 =      -0.08853660 Ry
     correction to one-el term =     221.50976670 Ry

     iteration #  2     ecut=    50.00 Ry     beta= 0.70
     Davidson diagonalization with overlap
     ethr =  2.28E-03,  avg # of iterations =  2.0

     total cpu time spent up to now is     1642.9 secs

     total energy              =   -3440.25386579 Ry
     estimated scf accuracy    <       1.19370047 Ry
     electrostatic embedding   =      -0.00316731 Ry
     cavitation energy         =       0.01967690 Ry
     PV energy                 =      -0.08992205 Ry
     correction to one-el term =     221.51401522 Ry

     iteration #  3     ecut=    50.00 Ry     beta= 0.70
     Davidson diagonalization with overlap
     ethr =  3.23E-04,  avg # of iterations =  5.0

     total cpu time spent up to now is     1903.9 secs

     total energy              =   -3440.36818225 Ry
     estimated scf accuracy    <       0.56206097 Ry
     electrostatic embedding   =      -0.00354360 Ry
     cavitation energy         =       0.01979095 Ry
     PV energy                 =      -0.08977753 Ry
     correction to one-el term =     221.51484740 Ry

     iteration #  4     ecut=    50.00 Ry     beta= 0.70
     Davidson diagonalization with overlap
     ethr =  1.52E-04,  avg # of iterations =  1.0

     total cpu time spent up to now is     2162.2 secs

     total energy              =   -3440.35654913 Ry
     estimated scf accuracy    <       0.25031686 Ry
     electrostatic embedding   =      -0.00367859 Ry
     cavitation energy         =       0.01991857 Ry
     PV energy                 =      -0.08943859 Ry
     correction to one-el term =     221.51496155 Ry

     iteration #  5     ecut=    50.00 Ry     beta= 0.70
     Davidson diagonalization with overlap
     ethr =  6.77E-05,  avg # of iterations =  2.0

     total cpu time spent up to now is     2442.5 secs

     total energy              =   -3440.34826490 Ry
     estimated scf accuracy    <       0.30951184 Ry
     electrostatic embedding   =      -0.00381519 Ry
     cavitation energy         =       0.02033544 Ry
     PV energy                 =      -0.08853342 Ry
     correction to one-el term =     221.51479138 Ry

     iteration #  6     ecut=    50.00 Ry     beta= 0.70
     Davidson diagonalization with overlap
     ethr =  6.77E-05,  avg # of iterations =  3.0

     total cpu time spent up to now is     2707.4 secs

     total energy              =   -3440.34597779 Ry
     estimated scf accuracy    <       0.18331737 Ry
     electrostatic embedding   =      -0.00380441 Ry
     cavitation energy         =       0.02120837 Ry
     PV energy                 =      -0.08682948 Ry
     correction to one-el term =     221.51394685 Ry

     iteration #  7     ecut=    50.00 Ry     beta= 0.70
     Davidson diagonalization with overlap
     ethr =  4.95E-05,  avg # of iterations =  2.0

     add environment contribution to local potential
     Polarization accuracy = 2.7E-12, # of iterations =  45

     total cpu time spent up to now is     2981.8 secs

     total energy              =   -3440.33778142 Ry
     estimated scf accuracy    <       0.09760457 Ry
     electrostatic embedding   =      -0.00367992 Ry
     cavitation energy         =       0.02178403 Ry
     PV energy                 =      -0.08573248 Ry
     correction to one-el term =     221.51314141 Ry

     iteration #  8     ecut=    50.00 Ry     beta= 0.70
     Davidson diagonalization with overlap
     ethr =  2.64E-05,  avg # of iterations = 10.0

     add environment contribution to local potential
     Polarization accuracy = 7.8E-12, # of iterations =  51

     total cpu time spent up to now is     3242.9 secs

     total energy              =   -3440.34911564 Ry
     estimated scf accuracy    <       0.06458853 Ry
     electrostatic embedding   =      -0.04301776 Ry
     cavitation energy         =       0.02261689 Ry
     PV energy                 =      -0.08417767 Ry
     correction to one-el term =     175.48121486 Ry

     iteration #  9     ecut=    50.00 Ry     beta= 0.70
     Davidson diagonalization with overlap
     ethr =  1.75E-05,  avg # of iterations =  2.0

     negative rho (up, down):  6.781E-04 0.000E+00

     add environment contribution to local potential
     Polarization accuracy = 4.7E-12, # of iterations =  55

     total cpu time spent up to now is     3535.8 secs

     total energy              =   -3440.35110634 Ry
     estimated scf accuracy    <       0.05108935 Ry
     electrostatic embedding   =      -0.04598796 Ry
     cavitation energy         =       0.02295529 Ry
     PV energy                 =      -0.08322334 Ry
     correction to one-el term =     173.27131203 Ry

     iteration # 10     ecut=    50.00 Ry     beta= 0.70
     Davidson diagonalization with overlap
     ethr =  1.38E-05,  avg # of iterations =  3.0

     negative rho (up, down):  2.261E-03 0.000E+00

     add environment contribution to local potential
     Polarization accuracy = 4.8E-12, # of iterations =  53

     total cpu time spent up to now is     3841.7 secs

     total energy              =   -3440.35370860 Ry
     estimated scf accuracy    <       0.01628734 Ry
     electrostatic embedding   =      -0.04755123 Ry
     cavitation energy         =       0.02290040 Ry
     PV energy                 =      -0.08299335 Ry
     correction to one-el term =     172.91118671 Ry

     iteration # 11     ecut=    50.00 Ry     beta= 0.70
     Davidson diagonalization with overlap
     ethr =  4.40E-06,  avg # of iterations =  6.0

     negative rho (up, down):  2.134E-03 0.000E+00

     add environment contribution to local potential
     Polarization accuracy = 4.2E-12, # of iterations =  50

     total cpu time spent up to now is     4097.4 secs

     total energy              =   -3440.35435995 Ry
     estimated scf accuracy    <       0.00986281 Ry
     electrostatic embedding   =      -0.04685251 Ry
     cavitation energy         =       0.02250416 Ry
     PV energy                 =      -0.08316946 Ry
     correction to one-el term =     174.17070393 Ry

     iteration # 12     ecut=    50.00 Ry     beta= 0.70
     Davidson diagonalization with overlap
     ethr =  2.67E-06,  avg # of iterations =  5.0

     negative rho (up, down):  6.794E-04 0.000E+00

     add environment contribution to local potential
     Polarization accuracy = 6.0E-12, # of iterations =  46

     total cpu time spent up to now is     4337.9 secs

     total energy              =   -3440.35506807 Ry
     estimated scf accuracy    <       0.00446310 Ry
     electrostatic embedding   =      -0.04565256 Ry
     cavitation energy         =       0.02234691 Ry
     PV energy                 =      -0.08330584 Ry
     correction to one-el term =     175.07500633 Ry

     iteration # 13     ecut=    50.00 Ry     beta= 0.70
     Davidson diagonalization with overlap
     ethr =  1.21E-06,  avg # of iterations =  5.5

     negative rho (up, down):  8.112E-08 0.000E+00

     add environment contribution to local potential
     Polarization accuracy = 5.0E-12, # of iterations =  45

     total cpu time spent up to now is     4637.7 secs

     total energy              =   -3440.35697790 Ry
     estimated scf accuracy    <       0.00188445 Ry
     electrostatic embedding   =      -0.04254559 Ry
     cavitation energy         =       0.02205021 Ry
     PV energy                 =      -0.08366873 Ry
     correction to one-el term =     177.12298658 Ry

     iteration # 14     ecut=    50.00 Ry     beta= 0.70
     Davidson diagonalization with overlap
     ethr =  5.09E-07,  avg # of iterations =  5.0

     negative rho (up, down):  4.649E-08 0.000E+00

     add environment contribution to local potential
     Polarization accuracy = 5.5E-12, # of iterations =  44

     total cpu time spent up to now is     4850.2 secs

     total energy              =   -3440.35795505 Ry
     estimated scf accuracy    <       0.00108720 Ry
     electrostatic embedding   =      -0.03967063 Ry
     cavitation energy         =       0.02191078 Ry
     PV energy                 =      -0.08393317 Ry
     correction to one-el term =     178.84716173 Ry

     iteration # 15     ecut=    50.00 Ry     beta= 0.70
     Davidson diagonalization with overlap
     ethr =  2.94E-07,  avg # of iterations =  5.0

     negative rho (up, down):  3.571E-05 0.000E+00

     add environment contribution to local potential
     Polarization accuracy = 4.2E-12, # of iterations =  44

     total cpu time spent up to now is     5056.7 secs

     total energy              =   -3440.35852564 Ry
     estimated scf accuracy    <       0.00080291 Ry
     electrostatic embedding   =      -0.03760046 Ry
     cavitation energy         =       0.02187866 Ry
     PV energy                 =      -0.08405591 Ry
     correction to one-el term =     180.19757823 Ry

     iteration # 16     ecut=    50.00 Ry     beta= 0.70
     Davidson diagonalization with overlap
     ethr =  2.17E-07,  avg # of iterations =  5.0

     negative rho (up, down):  3.326E-05 0.000E+00

     add environment contribution to local potential
     Polarization accuracy = 3.9E-12, # of iterations =  44

     total cpu time spent up to now is     5319.3 secs

     total energy              =   -3440.35869193 Ry
     estimated scf accuracy    <       0.00035556 Ry
     electrostatic embedding   =      -0.03689099 Ry
     cavitation energy         =       0.02185837 Ry
     PV energy                 =      -0.08407727 Ry
     correction to one-el term =     180.82254128 Ry

     iteration # 17     ecut=    50.00 Ry     beta= 0.70
     Davidson diagonalization with overlap
     ethr =  9.61E-08,  avg # of iterations =  7.0

     negative rho (up, down):  8.763E-04 0.000E+00

     add environment contribution to local potential
     Polarization accuracy = 5.8E-12, # of iterations =  44

     total cpu time spent up to now is     5601.1 secs

     total energy              =   -3440.35874573 Ry
     estimated scf accuracy    <       0.00022277 Ry
     electrostatic embedding   =      -0.03602029 Ry
     cavitation energy         =       0.02186386 Ry
     PV energy                 =      -0.08409438 Ry
     correction to one-el term =     181.15565532 Ry

     iteration # 18     ecut=    50.00 Ry     beta= 0.70
     Davidson diagonalization with overlap
     ethr =  6.02E-08,  avg # of iterations =  2.5

     negative rho (up, down):  6.491E-04 0.000E+00

     add environment contribution to local potential
     Polarization accuracy = 7.6E-12, # of iterations =  44

     total cpu time spent up to now is     5870.5 secs

     total energy              =   -3440.35876590 Ry
     estimated scf accuracy    <       0.00008477 Ry
     electrostatic embedding   =      -0.03581076 Ry
     cavitation energy         =       0.02187713 Ry
     PV energy                 =      -0.08406325 Ry
     correction to one-el term =     181.26602669 Ry

     iteration # 19     ecut=    50.00 Ry     beta= 0.70
     Davidson diagonalization with overlap
     ethr =  2.29E-08,  avg # of iterations =  2.0

     negative rho (up, down):  7.168E-04 0.000E+00

     add environment contribution to local potential
     Polarization accuracy = 8.8E-12, # of iterations =  44

     total cpu time spent up to now is     6173.6 secs

     total energy              =   -3440.35877336 Ry
     estimated scf accuracy    <       0.00004450 Ry
     electrostatic embedding   =      -0.03564839 Ry
     cavitation energy         =       0.02188400 Ry
     PV energy                 =      -0.08404393 Ry
     correction to one-el term =     181.28709150 Ry

     iteration # 20     ecut=    50.00 Ry     beta= 0.70
     Davidson diagonalization with overlap
     ethr =  1.20E-08,  avg # of iterations =  2.0

     negative rho (up, down):  3.435E-04 0.000E+00

     add environment contribution to local potential
     Polarization accuracy = 3.0E-12, # of iterations =  45

     total cpu time spent up to now is     6420.6 secs

     total energy              =   -3440.35877623 Ry
     estimated scf accuracy    <       0.00001654 Ry
     electrostatic embedding   =      -0.03549916 Ry
     cavitation energy         =       0.02188761 Ry
     PV energy                 =      -0.08403692 Ry
     correction to one-el term =     181.32298280 Ry

     iteration # 21     ecut=    50.00 Ry     beta= 0.70
     Davidson diagonalization with overlap
     ethr =  4.47E-09,  avg # of iterations =  2.0

     negative rho (up, down):  1.701E-04 0.000E+00

     add environment contribution to local potential
     Polarization accuracy = 3.4E-12, # of iterations =  45

     total cpu time spent up to now is     6706.6 secs

     total energy              =   -3440.35877905 Ry
     estimated scf accuracy    <       0.00000588 Ry
     electrostatic embedding   =      -0.03531443 Ry
     cavitation energy         =       0.02188894 Ry
     PV energy                 =      -0.08402140 Ry
     correction to one-el term =     181.34801682 Ry

     iteration # 22     ecut=    50.00 Ry     beta= 0.70
     Davidson diagonalization with overlap
     ethr =  1.59E-09,  avg # of iterations =  2.0

     negative rho (up, down):  8.945E-05 0.000E+00

     add environment contribution to local potential
     Polarization accuracy = 3.6E-12, # of iterations =  45

     total cpu time spent up to now is     7020.7 secs

     total energy              =   -3440.35877956 Ry
     estimated scf accuracy    <       0.00000336 Ry
     electrostatic embedding   =      -0.03525894 Ry
     cavitation energy         =       0.02188781 Ry
     PV energy                 =      -0.08401681 Ry
     correction to one-el term =     181.34835889 Ry

     iteration # 23     ecut=    50.00 Ry     beta= 0.70
     Davidson diagonalization with overlap
     ethr =  9.09E-10,  avg # of iterations =  2.0

     negative rho (up, down):  6.683E-05 0.000E+00

     add environment contribution to local potential
     Polarization accuracy = 3.8E-12, # of iterations =  45

     total cpu time spent up to now is     7305.7 secs

     total energy              =   -3440.35878032 Ry
     estimated scf accuracy    <       0.00000127 Ry
     electrostatic embedding   =      -0.03518195 Ry
     cavitation energy         =       0.02188436 Ry
     PV energy                 =      -0.08401369 Ry
     correction to one-el term =     181.35664052 Ry

     iteration # 24     ecut=    50.00 Ry     beta= 0.70
     Davidson diagonalization with overlap
     ethr =  3.44E-10,  avg # of iterations =  2.0

     negative rho (up, down):  6.876E-05 0.000E+00

     add environment contribution to local potential
     Polarization accuracy = 3.6E-12, # of iterations =  45

     total cpu time spent up to now is     7544.5 secs

     total energy              =   -3440.35878089 Ry
     estimated scf accuracy    <       0.00000051 Ry
     electrostatic embedding   =      -0.03513681 Ry
     cavitation energy         =       0.02188221 Ry
     PV energy                 =      -0.08401241 Ry
     correction to one-el term =     181.35942099 Ry

     iteration # 25     ecut=    50.00 Ry     beta= 0.70
     Davidson diagonalization with overlap
     ethr =  1.39E-10,  avg # of iterations =  1.0

     negative rho (up, down):  8.562E-05 0.000E+00

     add environment contribution to local potential
     Polarization accuracy = 3.6E-12, # of iterations =  45

     total cpu time spent up to now is     7809.6 secs

     total energy              =   -3440.35878122 Ry
     estimated scf accuracy    <       0.00000028 Ry
     electrostatic embedding   =      -0.03513518 Ry
     cavitation energy         =       0.02188001 Ry
     PV energy                 =      -0.08401474 Ry
     correction to one-el term =     181.35705823 Ry

     iteration # 26     ecut=    50.00 Ry     beta= 0.70
     Davidson diagonalization with overlap
     ethr =  7.64E-11,  avg # of iterations =  1.0

     negative rho (up, down):  1.056E-04 0.000E+00

     add environment contribution to local potential
     Polarization accuracy = 3.5E-12, # of iterations =  45

     total cpu time spent up to now is     8062.1 secs

     total energy              =   -3440.35878149 Ry
     estimated scf accuracy    <       0.00000014 Ry
     electrostatic embedding   =      -0.03512700 Ry
     cavitation energy         =       0.02187930 Ry
     PV energy                 =      -0.08401601 Ry
     correction to one-el term =     181.36003803 Ry

     iteration # 27     ecut=    50.00 Ry     beta= 0.70
     Davidson diagonalization with overlap
     ethr =  3.66E-11,  avg # of iterations =  1.0

     negative rho (up, down):  1.218E-04 0.000E+00

     add environment contribution to local potential
     Polarization accuracy = 3.5E-12, # of iterations =  45

     total cpu time spent up to now is     8336.2 secs

     total energy              =   -3440.35878177 Ry
     estimated scf accuracy    <       0.00000013 Ry
     electrostatic embedding   =      -0.03512135 Ry
     cavitation energy         =       0.02187903 Ry
     PV energy                 =      -0.08401721 Ry
     correction to one-el term =     181.36338215 Ry

     iteration # 28     ecut=    50.00 Ry     beta= 0.70
     Davidson diagonalization with overlap
     ethr =  3.61E-11,  avg # of iterations =  2.0

     negative rho (up, down):  1.348E-04 0.000E+00

     add environment contribution to local potential
     Polarization accuracy = 7.3E-12, # of iterations =  46

     total cpu time spent up to now is     8570.0 secs

     total energy              =   -3440.35878218 Ry
     estimated scf accuracy    <       0.00000010 Ry
     electrostatic embedding   =      -0.03510915 Ry
     cavitation energy         =       0.02187844 Ry
     PV energy                 =      -0.08401826 Ry
     correction to one-el term =     181.36718600 Ry

     iteration # 29     ecut=    50.00 Ry     beta= 0.70
     Davidson diagonalization with overlap
     ethr =  2.66E-11,  avg # of iterations =  1.0

     negative rho (up, down):  1.315E-04 0.000E+00

     add environment contribution to local potential
     Polarization accuracy = 4.1E-12, # of iterations =  45

     total cpu time spent up to now is     8876.1 secs

     total energy              =   -3440.35878257 Ry
     estimated scf accuracy    <       0.00000007 Ry
     electrostatic embedding   =      -0.03510431 Ry
     cavitation energy         =       0.02187872 Ry
     PV energy                 =      -0.08401869 Ry
     correction to one-el term =     181.37092685 Ry

     iteration # 30     ecut=    50.00 Ry     beta= 0.70
     Davidson diagonalization with overlap
     ethr =  1.96E-11,  avg # of iterations =  2.0

     negative rho (up, down):  1.310E-04 0.000E+00

     add environment contribution to local potential
     Polarization accuracy = 3.5E-12, # of iterations =  45

     total cpu time spent up to now is     9139.0 secs

     total energy              =   -3440.35878283 Ry
     estimated scf accuracy    <       0.00000007 Ry
     electrostatic embedding   =      -0.03509846 Ry
     cavitation energy         =       0.02187834 Ry
     PV energy                 =      -0.08401880 Ry
     correction to one-el term =     181.37165798 Ry

     iteration # 31     ecut=    50.00 Ry     beta= 0.70
     Davidson diagonalization with overlap
     ethr =  1.81E-11,  avg # of iterations =  1.0

     negative rho (up, down):  1.245E-04 0.000E+00

     add environment contribution to local potential
     Polarization accuracy = 3.5E-12, # of iterations =  45

     total cpu time spent up to now is     9409.4 secs

     total energy              =   -3440.35878315 Ry
     estimated scf accuracy    <       0.00000006 Ry
     electrostatic embedding   =      -0.03509515 Ry
     cavitation energy         =       0.02187837 Ry
     PV energy                 =      -0.08401878 Ry
     correction to one-el term =     181.37295329 Ry

     iteration # 32     ecut=    50.00 Ry     beta= 0.70
     Davidson diagonalization with overlap
     ethr =  1.56E-11,  avg # of iterations =  2.0

     negative rho (up, down):  1.189E-04 0.000E+00

     add environment contribution to local potential
     Polarization accuracy = 5.5E-12, # of iterations =  45

     total cpu time spent up to now is     9652.3 secs

     total energy              =   -3440.35878394 Ry
     estimated scf accuracy    <       0.00000006 Ry
     electrostatic embedding   =      -0.03509043 Ry
     cavitation energy         =       0.02187845 Ry
     PV energy                 =      -0.08401847 Ry
     correction to one-el term =     181.37446003 Ry

     iteration # 33     ecut=    50.00 Ry     beta= 0.70
     Davidson diagonalization with overlap
     ethr =  1.56E-11,  avg # of iterations =  2.0

     negative rho (up, down):  1.094E-04 0.000E+00

     add environment contribution to local potential
     Polarization accuracy = 3.4E-12, # of iterations =  45

     total cpu time spent up to now is     9897.0 secs

     total energy              =   -3440.35878513 Ry
     estimated scf accuracy    <       0.00000005 Ry
     electrostatic embedding   =      -0.03508557 Ry
     cavitation energy         =       0.02187814 Ry
     PV energy                 =      -0.08401839 Ry
     correction to one-el term =     181.37490247 Ry

     iteration # 34     ecut=    50.00 Ry     beta= 0.70
     Davidson diagonalization with overlap
     ethr =  1.39E-11,  avg # of iterations =  2.0

     negative rho (up, down):  1.081E-04 0.000E+00

     add environment contribution to local potential
     Polarization accuracy = 8.9E-12, # of iterations =  45

     total cpu time spent up to now is    10164.2 secs

     total energy              =   -3440.35878641 Ry
     estimated scf accuracy    <       0.00000005 Ry
     electrostatic embedding   =      -0.03508671 Ry
     cavitation energy         =       0.02187827 Ry
     PV energy                 =      -0.08401774 Ry
     correction to one-el term =     181.37372838 Ry

     iteration # 35     ecut=    50.00 Ry     beta= 0.70
     Davidson diagonalization with overlap
     ethr =  1.24E-11,  avg # of iterations =  9.5

     negative rho (up, down):  1.118E-04 0.000E+00

     add environment contribution to local potential
     Polarization accuracy = 1.0E-11, # of iterations =  44

     total cpu time spent up to now is    10418.6 secs

     total energy              =   -3440.35879070 Ry
     estimated scf accuracy    <       0.00000003 Ry
     electrostatic embedding   =      -0.03508397 Ry
     cavitation energy         =       0.02187798 Ry
     PV energy                 =      -0.08401765 Ry
     correction to one-el term =     181.37324400 Ry

     iteration # 36     ecut=    50.00 Ry     beta= 0.70
     Davidson diagonalization with overlap
     ethr =  8.16E-12,  avg # of iterations =  9.0

     negative rho (up, down):  1.215E-04 0.000E+00

     add environment contribution to local potential
     Polarization accuracy = 9.0E-12, # of iterations =  44

     total cpu time spent up to now is    10656.5 secs

     total energy              =   -3440.35879385 Ry
     estimated scf accuracy    <       0.00000004 Ry
     electrostatic embedding   =      -0.03508871 Ry
     cavitation energy         =       0.02187822 Ry
     PV energy                 =      -0.08401760 Ry
     correction to one-el term =     181.37224819 Ry

     iteration # 37     ecut=    50.00 Ry     beta= 0.70
     Davidson diagonalization with overlap
     ethr =  8.16E-12,  avg # of iterations =  2.0

     negative rho (up, down):  1.228E-04 0.000E+00

     add environment contribution to local potential
     Polarization accuracy = 8.9E-12, # of iterations =  44

     total cpu time spent up to now is    10859.2 secs

     total energy              =   -3440.35880087 Ry
     estimated scf accuracy    <       0.00000001 Ry
     electrostatic embedding   =      -0.03509393 Ry
     cavitation energy         =       0.02187837 Ry
     PV energy                 =      -0.08401785 Ry
     correction to one-el term =     181.37113503 Ry

     iteration # 38     ecut=    50.00 Ry     beta= 0.70
     Davidson diagonalization with overlap
     ethr =  4.00E-12,  avg # of iterations =  2.0

     negative rho (up, down):  1.277E-04 0.000E+00

     add environment contribution to local potential
     Polarization accuracy = 7.1E-12, # of iterations =  44

     total cpu time spent up to now is    11111.1 secs

     total energy              =   -3440.35880202 Ry
     estimated scf accuracy    <       0.00000002 Ry
     electrostatic embedding   =      -0.03509752 Ry
     cavitation energy         =       0.02187851 Ry
     PV energy                 =      -0.08401794 Ry
     correction to one-el term =     181.37075842 Ry

     iteration # 39     ecut=    50.00 Ry     beta= 0.70
     Davidson diagonalization with overlap
     ethr =  4.00E-12,  avg # of iterations =  2.0

     negative rho (up, down):  1.283E-04 0.000E+00

     add environment contribution to local potential
     Polarization accuracy = 7.1E-12, # of iterations =  44

     total cpu time spent up to now is    11422.1 secs

     total energy              =   -3440.35880493 Ry
     estimated scf accuracy    <          3.2E-09 Ry
     electrostatic embedding   =      -0.03509771 Ry
     cavitation energy         =       0.02187857 Ry
     PV energy                 =      -0.08401818 Ry
     correction to one-el term =     181.37152907 Ry

     iteration # 40     ecut=    50.00 Ry     beta= 0.70
     Davidson diagonalization with overlap
     ethr =  8.71E-13,  avg # of iterations =  2.0

     negative rho (up, down):  1.279E-04 0.000E+00

     add environment contribution to local potential
     Polarization accuracy = 5.2E-12, # of iterations =  44

     total cpu time spent up to now is    11728.0 secs

     total energy              =   -3440.35880536 Ry
     estimated scf accuracy    <          1.4E-09 Ry
     electrostatic embedding   =      -0.03509818 Ry
     cavitation energy         =       0.02187858 Ry
     PV energy                 =      -0.08401829 Ry
     correction to one-el term =     181.37179020 Ry

     iteration # 41     ecut=    50.00 Ry     beta= 0.70
     Davidson diagonalization with overlap
     ethr =  3.72E-13,  avg # of iterations =  2.0

     negative rho (up, down):  1.233E-04 0.000E+00

     the potential shift due to the Gaussian-smeared nuclei is    -1.3280 ev

     total cpu time spent up to now is    12016.8 secs

     End of self-consistent calculation

          k = 0.2500 0.2573 0.0000 ( 35510 PWs)   bands (ev):

   -76.3381 -76.3260 -76.3226 -76.3140 -76.2832 -76.2711 -76.2345 -76.2204
   -76.2192 -76.2067 -76.1885 -76.1761 -46.6841 -46.6827 -46.6706 -46.6419
   -46.5445 -46.5324 -46.4866 -46.4747 -46.4202 -46.4080 -46.3988 -46.3867
   -46.2812 -46.2598 -46.2477 -46.2286 -46.2162 -46.2012 -46.1865 -46.1734
   -46.1616 -46.1598 -46.1485 -46.1476 -46.1315 -46.1285 -46.1191 -46.1183
   -46.1066 -46.1003 -46.0785 -46.0505 -46.0484 -46.0359 -46.0077 -45.9954
   -24.3845 -24.3676 -23.1420 -23.1087 -22.9247 -22.9051 -22.6473 -22.4500
   -22.3887 -22.2433 -22.1817 -22.1649 -22.0682 -22.0589 -22.0127 -21.9240
   -21.8557 -21.8085 -21.7555 -21.7060 -21.6649 -21.6532 -21.6093 -21.4949
   -21.4935 -21.3841 -21.3568 -21.3179 -12.1585 -12.1417 -11.2169 -11.0040
   -10.8563 -10.8345 -10.7086 -10.6916 -10.6732 -10.5767 -10.1876 -10.1655
   -10.1168 -10.0558  -9.9973  -9.9572  -9.8249  -9.8200  -9.7583  -9.7170
    -9.7062  -9.6850  -9.6169  -9.5602  -9.4962  -9.4624  -9.4068  -9.3103
    -9.2202  -9.2141  -9.0796  -8.8819  -8.7719  -8.7542  -8.6222  -8.5550
    -8.5380  -8.4457  -8.3799  -8.3039  -8.1757  -8.0693  -7.9334  -7.9042
    -7.8555  -7.7708  -7.7551  -7.6637  -7.5944  -7.5042  -7.4856  -7.3995
    -7.3646  -7.2718  -7.2399  -7.1926  -7.1494  -7.1088  -7.0722  -7.0361
    -6.9409  -6.8665  -6.8252  -6.7663  -6.7441  -6.6369  -6.6290  -6.4987
    -6.4754  -6.3355  -6.2783  -6.2250  -6.1743  -6.1337  -6.1002  -5.8865
    -5.8797  -5.8322  -5.7836  -5.7414  -5.6811  -5.5103  -5.4153  -5.2186
    -4.1409  -4.0323  -3.9882  -3.8494  -3.8271  -3.7872  -3.7438  -3.6631
    -3.6514  -3.6346  -3.6235  -3.5700  -3.5180  -3.5071  -3.4762  -3.4184
    -3.3865  -3.3684  -3.3084  -3.2446  -3.2013  -3.1695  -3.1269  -3.0762
    -2.9668  -2.9330  -2.8437  -2.4972  -2.3587  -2.2323  -2.1932  -2.1442
    -2.0991  -2.0412  -1.8841  -1.7084  -0.9193  -0.8243  -0.6367  -0.6166
    -0.5636  -0.4843  -0.4010  -0.0059   0.1083   0.2479   0.4755   0.6069
     0.7382   0.7872   0.8561   0.8799   0.9998   1.0483   1.0861   1.2346
     1.2409   1.3922   1.5706   1.6906   1.7228   2.2667

          k =-0.2500 0.2573 0.0000 ( 35510 PWs)   bands (ev):

   -76.3381 -76.3260 -76.3226 -76.3140 -76.2832 -76.2711 -76.2345 -76.2204
   -76.2192 -76.2067 -76.1885 -76.1761 -46.6841 -46.6827 -46.6706 -46.6419
   -46.5446 -46.5325 -46.4865 -46.4747 -46.4202 -46.4080 -46.3988 -46.3867
   -46.2812 -46.2600 -46.2478 -46.2279 -46.2155 -46.2012 -46.1865 -46.1734
   -46.1615 -46.1597 -46.1485 -46.1476 -46.1323 -46.1285 -46.1200 -46.1184
   -46.1066 -46.1001 -46.0787 -46.0505 -46.0479 -46.0354 -46.0078 -45.9954
   -24.3846 -24.3676 -23.1393 -23.1061 -22.9295 -22.9093 -22.6460 -22.4482
   -22.3818 -22.2581 -22.1595 -22.1530 -22.0874 -22.0747 -22.0037 -21.9252
   -21.8603 -21.8089 -21.7530 -21.7027 -21.6632 -21.6469 -21.6174 -21.4946
   -21.4941 -21.3840 -21.3560 -21.3172 -12.1559 -12.1390 -11.2279 -11.0247
   -10.8844 -10.8652 -10.6937 -10.6475 -10.6291 -10.5693 -10.1975 -10.1567
   -10.1315 -10.0971  -9.9876  -9.9391  -9.8658  -9.8169  -9.7326  -9.7226
    -9.6606  -9.6595  -9.6030  -9.5736  -9.5093  -9.5051  -9.3499  -9.3304
    -9.2586  -9.2089  -9.0376  -8.9812  -8.8061  -8.7192  -8.6302  -8.5595
    -8.4630  -8.3868  -8.3678  -8.2537  -8.1488  -8.0413  -8.0121  -7.8923
    -7.8840  -7.8277  -7.8038  -7.6655  -7.6424  -7.5549  -7.5091  -7.3643
    -7.3522  -7.2563  -7.2418  -7.2236  -7.2144  -7.0677  -7.0504  -6.9471
    -6.9119  -6.8365  -6.8270  -6.7411  -6.7163  -6.6413  -6.6005  -6.5319
    -6.5109  -6.3160  -6.2999  -6.2748  -6.2055  -6.0950  -6.0827  -5.9337
    -5.9179  -5.8218  -5.7877  -5.6839  -5.6193  -5.5140  -5.4536  -5.2291
    -4.1031  -4.0532  -4.0091  -3.8566  -3.8136  -3.8029  -3.7290  -3.6748
    -3.6549  -3.6114  -3.6059  -3.5710  -3.5048  -3.4873  -3.4780  -3.4481
    -3.3975  -3.3592  -3.3153  -3.3016  -3.2121  -3.1563  -3.1175  -3.0827
    -2.9694  -2.9042  -2.8368  -2.4972  -2.3486  -2.2465  -2.2010  -2.1338
    -2.0982  -2.0466  -1.8864  -1.7044  -0.9200  -0.8191  -0.6252  -0.6188
    -0.5713  -0.4834  -0.4042  -0.0044   0.1107   0.2397   0.4767   0.6168
     0.7399   0.7899   0.8561   0.8813   0.9922   1.0498   1.0839   1.2319
     1.2453   1.3932   1.5720   1.6844   1.7235   2.2643

     the Fermi energy is    -2.9396 ev

!    total energy              =   -3440.35880503 Ry
     estimated scf accuracy    <          9.0E-10 Ry
     smearing contrib. (-TS)   =       0.07802449 Ry
     internal energy E=F+TS    =   -3440.43682952 Ry

     The total energy is F=E-TS. E is the sum of the following terms:
     one-electron contribution =  -25030.49364121 Ry
     hartree contribution      =   12512.74705546 Ry
     xc contribution           =    -451.48362201 Ry
     ewald contribution        =    9613.95118656 Ry
     one-center paw contrib.   =    -266.43241204 Ry
     electrostatic embedding   =      -0.03509835 Ry
     cavitation energy         =       0.02187855 Ry
     PV energy                 =      -0.08401834 Ry
     correction to one-el term =     181.37184186 Ry

     WARNING: you are using the parabolic pbc correction;
              the potential shift above must be added to 
              band and Fermi energies.

     convergence has been achieved in  41 iterations

     negative rho (up, down):  1.233E-04 0.000E+00

     Forces acting on atoms (cartesian axes, Ry/au):

     atom    1 type  1   force =     0.02945906    0.09674100   -0.00116524
     atom    2 type  1   force =    -0.00894024   -0.00043687   -0.00018420
     atom    3 type  1   force =    -0.00111176    0.03143630    0.03652231
     atom    4 type  1   force =     0.00214831   -0.07745583    0.03591065
     atom    5 type  2   force =     0.00388610   -0.00338158   -0.00365684
     atom    6 type  2   force =    -0.00423701   -0.00229981   -0.00165950
     atom    7 type  1   force =     0.00017844    0.03817517    0.00325213
     atom    8 type  1   force =    -0.00070669    0.01502766    0.00050444
     atom    9 type  2   force =    -0.00939094    0.00017978   -0.00445769
     atom   10 type  2   force =     0.01040023    0.00538251   -0.00126555
     atom   11 type  1   force =     0.00033031   -0.03454029   -0.00127135
     atom   12 type  1   force =    -0.00083705   -0.01357049   -0.00304622
     atom   13 type  1   force =     0.00042028   -0.00101788   -0.00007507
     atom   14 type  1   force =     0.00027287   -0.00107983    0.00218354
     atom   15 type  1   force =     0.00023254   -0.00010357    0.00048597
     atom   16 type  1   force =     0.00035298    0.00037435    0.00518744
     atom   17 type  2   force =     0.00355627    0.00276219    0.00000000
     atom   18 type  2   force =    -0.00344803    0.00284225    0.00000000
     atom   19 type  1   force =    -0.00178894   -0.02148833    0.00000000
     atom   20 type  1   force =     0.00163184   -0.02658236    0.00000000
     atom   21 type  2   force =    -0.00302544   -0.00260528    0.00000000
     atom   22 type  2   force =     0.00327102   -0.00443538    0.00000000
     atom   23 type  1   force =    -0.00233480    0.02388958    0.00000000
     atom   24 type  1   force =     0.00173636    0.03081185    0.00000000
     atom   25 type  1   force =     0.00023254   -0.00010357   -0.00048597
     atom   26 type  1   force =     0.00035298    0.00037435   -0.00518744
     atom   27 type  1   force =     0.00042028   -0.00101788    0.00007507
     atom   28 type  1   force =     0.00027287   -0.00107983   -0.00218354
     atom   29 type  2   force =     0.00388610   -0.00338158    0.00365684
     atom   30 type  2   force =    -0.00423701   -0.00229981    0.00165950
     atom   31 type  1   force =     0.00017844    0.03817517   -0.00325213
     atom   32 type  1   force =    -0.00070669    0.01502766   -0.00050444
     atom   33 type  2   force =    -0.00939094    0.00017978    0.00445769
     atom   34 type  2   force =     0.01040023    0.00538251    0.00126555
     atom   35 type  1   force =     0.00033031   -0.03454029    0.00127135
     atom   36 type  1   force =    -0.00083705   -0.01357049    0.00304622
     atom   37 type  1   force =    -0.00111176    0.03143630   -0.03652231
     atom   38 type  1   force =     0.00214831   -0.07745583   -0.03591065
     atom   39 type  1   force =     0.02945906    0.09674100    0.00116524
     atom   40 type  1   force =    -0.00894024   -0.00043687    0.00018420
     atom   41 type  3   force =    -0.00698858    0.00092102    0.00010337
     atom   42 type  3   force =    -0.00698858    0.00092102   -0.00010337
     atom   43 type  3   force =     0.00717566    0.00531288   -0.00611998
     atom   44 type  3   force =     0.00717566    0.00531288    0.00611998
     atom   45 type  3   force =    -0.02043456   -0.09394185   -0.00327761
     atom   46 type  3   force =    -0.02043456   -0.09394185    0.00327761
     atom   47 type  3   force =    -0.00220797    0.06786948   -0.03485031
     atom   48 type  3   force =    -0.00220797    0.06786948    0.03485031
     atom   49 type  3   force =     0.00019887   -0.03618941   -0.03496217
     atom   50 type  3   force =     0.00019887   -0.03618941    0.03496217
     The non-local contrib.  to forces
     atom    1 type  1   force =     1.05758661   -1.46723274    0.31633629
     atom    2 type  1   force =     1.26091238    0.76791279   -0.32521514
     atom    3 type  1   force =     0.01263001   -1.36053880   -0.49132807
     atom    4 type  1   force =    -0.01668657    1.39014999    0.17307011
     atom    5 type  2   force =     0.00072344   -0.00108049    0.05301501
     atom    6 type  2   force =    -0.00281407   -0.00362749    0.04990602
     atom    7 type  1   force =    -0.00813647    0.03896242   -0.12353939
     atom    8 type  1   force =    -0.00094831   -0.03829394   -0.04147522
     atom    9 type  2   force =    -0.02134697    0.01285720    0.00290308
     atom   10 type  2   force =     0.02736012    0.01828686    0.03057668
     atom   11 type  1   force =    -0.01989701   -0.04827237    0.07645922
     atom   12 type  1   force =     0.01131208    0.05705530    0.09180915
     atom   13 type  1   force =    -0.00118945    0.06610185   -0.04339645
     atom   14 type  1   force =    -0.00248883    0.02412851   -0.06046038
     atom   15 type  1   force =     0.00806934   -0.05993081   -0.18615042
     atom   16 type  1   force =    -0.00874097   -0.06067723    0.00498242
     atom   17 type  2   force =     0.00197562   -0.00150518    0.00000000
     atom   18 type  2   force =    -0.00319140    0.00186719    0.00000000
     atom   19 type  1   force =     0.01248152    0.00766965    0.00000000
     atom   20 type  1   force =    -0.01318362   -0.01960158    0.00000000
     atom   21 type  2   force =     0.00218463    0.00008228    0.00000000
     atom   22 type  2   force =     0.00076544   -0.00055894    0.00000000
     atom   23 type  1   force =     0.01803201   -0.02023914    0.00000000
     atom   24 type  1   force =    -0.01537074   -0.00561107    0.00000000
     atom   25 type  1   force =     0.00806934   -0.05993081    0.18615042
     atom   26 type  1   force =    -0.00874097   -0.06067723   -0.00498242
     atom   27 type  1   force =    -0.00118945    0.06610185    0.04339645
     atom   28 type  1   force =    -0.00248883    0.02412851    0.06046038
     atom   29 type  2   force =     0.00072344   -0.00108049   -0.05301501
     atom   30 type  2   force =    -0.00281407   -0.00362749   -0.04990602
     atom   31 type  1   force =    -0.00813647    0.03896242    0.12353939
     atom   32 type  1   force =    -0.00094831   -0.03829394    0.04147522
     atom   33 type  2   force =    -0.02134697    0.01285720   -0.00290308
     atom   34 type  2   force =     0.02736012    0.01828686   -0.03057668
     atom   35 type  1   force =    -0.01989701   -0.04827237   -0.07645922
     atom   36 type  1   force =     0.01131208    0.05705530   -0.09180915
     atom   37 type  1   force =     0.01263001   -1.36053880    0.49132807
     atom   38 type  1   force =    -0.01668657    1.39014999   -0.17307011
     atom   39 type  1   force =     1.05758661   -1.46723274   -0.31633629
     atom   40 type  1   force =     1.26091238    0.76791279    0.32521514
     atom   41 type  3   force =    -0.08598672   -0.00578477    0.01025651
     atom   42 type  3   force =    -0.08598672   -0.00578477   -0.01025651
     atom   43 type  3   force =    -0.08018485   -0.04346682    0.06450256
     atom   44 type  3   force =    -0.08018485   -0.04346682   -0.06450256
     atom   45 type  3   force =     0.02837940    0.12061631    0.00242907
     atom   46 type  3   force =     0.02837940    0.12061631   -0.00242907
     atom   47 type  3   force =     0.00222595   -0.10352678    0.05204624
     atom   48 type  3   force =     0.00222595   -0.10352678   -0.05204624
     atom   49 type  3   force =    -0.00094862    0.08284749    0.08801792
     atom   50 type  3   force =    -0.00094862    0.08284749   -0.08801792
     The ionic contribution  to forces
     atom    1 type  1   force =    -3.46797935    3.92400658  -91.19797720
     atom    2 type  1   force =    -0.47195400   -0.37743878  -91.52280341
     atom    3 type  1   force =    -0.62679370    0.74583001  -89.55227308
     atom    4 type  1   force =     0.66162902   -4.37936598  -90.89871049
     atom    5 type  2   force =    -0.47918701   -3.22032412 -166.56531323
     atom    6 type  2   force =     0.39234500   -2.74956162 -168.11036893
     atom    7 type  1   force =    -0.18035532   -0.21032618  -58.43765802
     atom    8 type  1   force =     0.18110263   -0.10662460  -62.11816884
     atom    9 type  2   force =    -3.19582874    2.67256774 -165.87386204
     atom   10 type  2   force =     3.31167326    3.54707915 -168.34439963
     atom   11 type  1   force =     0.11421922    0.90195784  -65.72473947
     atom   12 type  1   force =    -0.07657244    0.64582389  -67.87903649
     atom   13 type  1   force =    -0.34149513   -0.75346700  -37.33140926
     atom   14 type  1   force =     0.37759415   -0.73930623  -37.19429983
     atom   15 type  1   force =    -0.37498712    0.50989341  -24.63756088
     atom   16 type  1   force =     0.38282490    0.57724098  -25.99338427
     atom   17 type  2   force =    -0.18482711    0.96367354   -0.00045828
     atom   18 type  2   force =     0.20181527    0.90188393   -0.00045402
     atom   19 type  1   force =    -0.12331308    0.76538351   -0.00008579
     atom   20 type  1   force =     0.14523094    0.76198408   -0.00007973
     atom   21 type  2   force =     0.11826665   -0.26156696   -0.00027449
     atom   22 type  2   force =    -0.07862793   -0.47744943   -0.00026060
     atom   23 type  1   force =    -0.16345401   -0.71913567   -0.00008335
     atom   24 type  1   force =     0.13320054   -0.60293442   -0.00007932
     atom   25 type  1   force =    -0.37498352    0.50989349   24.63735389
     atom   26 type  1   force =     0.38282106    0.57724109   25.99321497
     atom   27 type  1   force =    -0.34149514   -0.75347874   37.33170004
     atom   28 type  1   force =     0.37759364   -0.73931600   37.19459342
     atom   29 type  2   force =    -0.47917637   -3.22030638  166.56561492
     atom   30 type  2   force =     0.39233614   -2.74954063  168.11066617
     atom   31 type  1   force =    -0.18035564   -0.21036086   58.43771964
     atom   32 type  1   force =     0.18110455   -0.10665545   62.11823294
     atom   33 type  2   force =    -3.19584112    2.67257122  165.87398798
     atom   34 type  2   force =     3.31167891    3.54708160  168.34453342
     atom   35 type  1   force =     0.11422107    0.90198905   65.72480150
     atom   36 type  1   force =    -0.07657289    0.64585043   67.87909930
     atom   37 type  1   force =    -0.62680029    0.74603279   89.55221524
     atom   38 type  1   force =     0.66163331   -4.37960200   90.89882931
     atom   39 type  1   force =    -3.46799974    3.92402413   91.19820036
     atom   40 type  1   force =    -0.47204951   -0.37748628   91.52289433
     atom   41 type  3   force =     2.11762840    0.41389192  -15.35568166
     atom   42 type  3   force =     2.11764705    0.41389393   15.35565818
     atom   43 type  3   force =     2.59870989    1.54297740  -16.35754171
     atom   44 type  3   force =     2.59881322    1.54303341   16.35760356
     atom   45 type  3   force =    -1.05633129   -3.23424488  -15.18551602
     atom   46 type  3   force =    -1.05633200   -3.23423313   15.18547001
     atom   47 type  3   force =     0.17586752    2.18361607  -16.51457890
     atom   48 type  3   force =     0.17586310    2.18382654   16.51453063
     atom   49 type  3   force =    -0.06625494   -2.56012993  -17.44357885
     atom   50 type  3   force =    -0.06625203   -2.56039244   17.44371801
     The local contribution  to forces
     atom    1 type  1   force =     2.45507518   -2.34864216   90.86656360
     atom    2 type  1   force =    -0.81933406   -0.38820966   91.85308125
     atom    3 type  1   force =     0.61544915    0.65509308   90.13231450
     atom    4 type  1   force =    -0.64698353    2.89587481   90.71936112
     atom    5 type  2   force =     0.51674321    3.21208567  166.50192720
     atom    6 type  2   force =    -0.42795253    2.74502898  168.05693921
     atom    7 type  1   force =     0.19423173    0.21149868   58.56226090
     atom    8 type  1   force =    -0.18632765    0.15970539   62.16225952
     atom    9 type  2   force =     3.21250313   -2.68488315  165.87359482
     atom   10 type  2   force =    -3.33612625   -3.54831463  168.30267057
     atom   11 type  1   force =    -0.08159366   -0.88895732   65.64098966
     atom   12 type  1   force =     0.05349438   -0.71409851   67.78213381
     atom   13 type  1   force =     0.34346782    0.68694755   37.37734830
     atom   14 type  1   force =    -0.37535396    0.71305772   37.25177145
     atom   15 type  1   force =     0.36752709   -0.45052508   24.82210269
     atom   16 type  1   force =    -0.37417258   -0.51623571   25.99195422
     atom   17 type  2   force =     0.18677359   -0.95971269   -0.00581003
     atom   18 type  2   force =    -0.20247728   -0.90160610   -0.00582867
     atom   19 type  1   force =     0.10997282   -0.79489258   -0.00241763
     atom   20 type  1   force =    -0.13133513   -0.76974599   -0.00243308
     atom   21 type  2   force =    -0.12144975    0.25939040   -0.00596232
     atom   22 type  2   force =     0.07909803    0.47408683   -0.00599564
     atom   23 type  1   force =     0.14417864    0.76336611   -0.00242602
     atom   24 type  1   force =    -0.11716302    0.63977301   -0.00244035
     atom   25 type  1   force =     0.36754299   -0.45054760  -24.82384672
     atom   26 type  1   force =    -0.37418894   -0.51626000  -25.99368339
     atom   27 type  1   force =     0.34346839    0.68694381  -37.37911648
     atom   28 type  1   force =    -0.37535627    0.71305798  -37.25354147
     atom   29 type  2   force =     0.51675210    3.21211031 -166.50793504
     atom   30 type  2   force =    -0.42796015    2.74505524 -168.06291544
     atom   31 type  1   force =     0.19424515    0.21150022  -58.56467267
     atom   32 type  1   force =    -0.18634123    0.15969176  -62.16467705
     atom   33 type  2   force =     3.21254754   -2.68494821 -165.87944197
     atom   34 type  2   force =    -3.33616931   -3.54839442 -168.30846687
     atom   35 type  1   force =    -0.08158317   -0.88897110  -65.64341999
     atom   36 type  1   force =     0.05348466   -0.71409526  -67.78454805
     atom   37 type  1   force =     0.61545592    0.65506311  -90.13600931
     atom   38 type  1   force =    -0.64698715    2.89601833  -90.72315804
     atom   39 type  1   force =     2.45508645   -2.34865543  -90.86826255
     atom   40 type  1   force =    -0.81931778   -0.38821628  -91.85469494
     atom   41 type  3   force =    -2.03605008   -0.40458471   15.34369389
     atom   42 type  3   force =    -2.03605008   -0.40458471  -15.34369389
     atom   43 type  3   force =    -2.53021251   -1.50097925   16.30480845
     atom   44 type  3   force =    -2.53021251   -1.50097925  -16.30480845
     atom   45 type  3   force =     1.01002242    3.02775108   15.18473152
     atom   46 type  3   force =     1.01002242    3.02775108  -15.18473152
     atom   47 type  3   force =    -0.18175486   -2.01780250   16.42385831
     atom   48 type  3   force =    -0.18175486   -2.01780250  -16.42385831
     atom   49 type  3   force =     0.06796726    2.45222300   17.35000041
     atom   50 type  3   force =     0.06796726    2.45222300  -17.35000041
     The core correction contribution to forces
     atom    1 type  1   force =    -0.01023703    0.01283151   -0.00350360
     atom    2 type  1   force =    -0.01262645   -0.00781514    0.00276410
     atom    3 type  1   force =    -0.00010855    0.01341238    0.00379010
     atom    4 type  1   force =     0.00010818   -0.01253870   -0.00273912
     atom    5 type  2   force =     0.00000000    0.00000000    0.00000000
     atom    6 type  2   force =     0.00000000    0.00000000    0.00000000
     atom    7 type  1   force =     0.00008048   -0.00118393    0.00118066
     atom    8 type  1   force =     0.00002256    0.00007066    0.00048574
     atom    9 type  2   force =     0.00000000    0.00000000    0.00000000
     atom   10 type  2   force =     0.00000000    0.00000000    0.00000000
     atom   11 type  1   force =     0.00018242    0.00131436   -0.00064067
     atom   12 type  1   force =    -0.00007194   -0.00023496   -0.00070592
     atom   13 type  1   force =     0.00000577   -0.00071231    0.00047479
     atom   14 type  1   force =     0.00003067   -0.00019200    0.00059945
     atom   15 type  1   force =    -0.00008277    0.00061742    0.00204863
     atom   16 type  1   force =     0.00009528    0.00063488   -0.00024853
     atom   17 type  2   force =     0.00000000    0.00000000    0.00000000
     atom   18 type  2   force =     0.00000000    0.00000000    0.00000000
     atom   19 type  1   force =    -0.00011190    0.00029267   -0.00000203
     atom   20 type  1   force =     0.00010508    0.00068392   -0.00000204
     atom   21 type  2   force =     0.00000000    0.00000000    0.00000000
     atom   22 type  2   force =     0.00000000    0.00000000    0.00000000
     atom   23 type  1   force =    -0.00014026   -0.00017529   -0.00000191
     atom   24 type  1   force =     0.00012174   -0.00044714   -0.00000191
     atom   25 type  1   force =    -0.00008277    0.00061751   -0.00205118
     atom   26 type  1   force =     0.00009527    0.00063497    0.00024626
     atom   27 type  1   force =     0.00000577   -0.00071250   -0.00047700
     atom   28 type  1   force =     0.00003068   -0.00019215   -0.00060173
     atom   29 type  2   force =     0.00000000    0.00000000    0.00000000
     atom   30 type  2   force =     0.00000000    0.00000000    0.00000000
     atom   31 type  1   force =     0.00008053   -0.00118393   -0.00118264
     atom   32 type  1   force =     0.00002251    0.00007072   -0.00048769
     atom   33 type  2   force =     0.00000000    0.00000000    0.00000000
     atom   34 type  2   force =     0.00000000    0.00000000    0.00000000
     atom   35 type  1   force =     0.00018250    0.00131432    0.00063859
     atom   36 type  1   force =    -0.00007197   -0.00023505    0.00070381
     atom   37 type  1   force =    -0.00010854    0.01341431   -0.00379482
     atom   38 type  1   force =     0.00010814   -0.01254038    0.00273547
     atom   39 type  1   force =    -0.01023759    0.01283193    0.00350250
     atom   40 type  1   force =    -0.01262713   -0.00781543   -0.00276677
     atom   41 type  3   force =     0.00000000    0.00000000    0.00000000
     atom   42 type  3   force =     0.00000000    0.00000000    0.00000000
     atom   43 type  3   force =     0.00000000    0.00000000    0.00000000
     atom   44 type  3   force =     0.00000000    0.00000000    0.00000000
     atom   45 type  3   force =     0.00000000    0.00000000    0.00000000
     atom   46 type  3   force =     0.00000000    0.00000000    0.00000000
     atom   47 type  3   force =     0.00000000    0.00000000    0.00000000
     atom   48 type  3   force =     0.00000000    0.00000000    0.00000000
     atom   49 type  3   force =     0.00000000    0.00000000    0.00000000
     atom   50 type  3   force =     0.00000000    0.00000000    0.00000000
     The Hubbard contrib.    to forces
     atom    1 type  1   force =     0.00000000    0.00000000    0.00000000
     atom    2 type  1   force =     0.00000000    0.00000000    0.00000000
     atom    3 type  1   force =     0.00000000    0.00000000    0.00000000
     atom    4 type  1   force =     0.00000000    0.00000000    0.00000000
     atom    5 type  2   force =     0.00000000    0.00000000    0.00000000
     atom    6 type  2   force =     0.00000000    0.00000000    0.00000000
     atom    7 type  1   force =     0.00000000    0.00000000    0.00000000
     atom    8 type  1   force =     0.00000000    0.00000000    0.00000000
     atom    9 type  2   force =     0.00000000    0.00000000    0.00000000
     atom   10 type  2   force =     0.00000000    0.00000000    0.00000000
     atom   11 type  1   force =     0.00000000    0.00000000    0.00000000
     atom   12 type  1   force =     0.00000000    0.00000000    0.00000000
     atom   13 type  1   force =     0.00000000    0.00000000    0.00000000
     atom   14 type  1   force =     0.00000000    0.00000000    0.00000000
     atom   15 type  1   force =     0.00000000    0.00000000    0.00000000
     atom   16 type  1   force =     0.00000000    0.00000000    0.00000000
     atom   17 type  2   force =     0.00000000    0.00000000    0.00000000
     atom   18 type  2   force =     0.00000000    0.00000000    0.00000000
     atom   19 type  1   force =     0.00000000    0.00000000    0.00000000
     atom   20 type  1   force =     0.00000000    0.00000000    0.00000000
     atom   21 type  2   force =     0.00000000    0.00000000    0.00000000
     atom   22 type  2   force =     0.00000000    0.00000000    0.00000000
     atom   23 type  1   force =     0.00000000    0.00000000    0.00000000
     atom   24 type  1   force =     0.00000000    0.00000000    0.00000000
     atom   25 type  1   force =     0.00000000    0.00000000    0.00000000
     atom   26 type  1   force =     0.00000000    0.00000000    0.00000000
     atom   27 type  1   force =     0.00000000    0.00000000    0.00000000
     atom   28 type  1   force =     0.00000000    0.00000000    0.00000000
     atom   29 type  2   force =     0.00000000    0.00000000    0.00000000
     atom   30 type  2   force =     0.00000000    0.00000000    0.00000000
     atom   31 type  1   force =     0.00000000    0.00000000    0.00000000
     atom   32 type  1   force =     0.00000000    0.00000000    0.00000000
     atom   33 type  2   force =     0.00000000    0.00000000    0.00000000
     atom   34 type  2   force =     0.00000000    0.00000000    0.00000000
     atom   35 type  1   force =     0.00000000    0.00000000    0.00000000
     atom   36 type  1   force =     0.00000000    0.00000000    0.00000000
     atom   37 type  1   force =     0.00000000    0.00000000    0.00000000
     atom   38 type  1   force =     0.00000000    0.00000000    0.00000000
     atom   39 type  1   force =     0.00000000    0.00000000    0.00000000
     atom   40 type  1   force =     0.00000000    0.00000000    0.00000000
     atom   41 type  3   force =     0.00000000    0.00000000    0.00000000
     atom   42 type  3   force =     0.00000000    0.00000000    0.00000000
     atom   43 type  3   force =     0.00000000    0.00000000    0.00000000
     atom   44 type  3   force =     0.00000000    0.00000000    0.00000000
     atom   45 type  3   force =     0.00000000    0.00000000    0.00000000
     atom   46 type  3   force =     0.00000000    0.00000000    0.00000000
     atom   47 type  3   force =     0.00000000    0.00000000    0.00000000
     atom   48 type  3   force =     0.00000000    0.00000000    0.00000000
     atom   49 type  3   force =     0.00000000    0.00000000    0.00000000
     atom   50 type  3   force =     0.00000000    0.00000000    0.00000000
     The SCF correction term to forces
     atom    1 type  1   force =     0.00000250   -0.00000495    0.00001432
     atom    2 type  1   force =    -0.00000189   -0.00000306    0.00000655
     atom    3 type  1   force =    -0.00000244    0.00000383    0.00000679
     atom    4 type  1   force =     0.00000317    0.00000491    0.00000345
     atom    5 type  2   force =    -0.00000777    0.00000582    0.00000335
     atom    6 type  2   force =     0.00000715    0.00000512    0.00001020
     atom    7 type  1   force =    -0.00000986    0.00001162   -0.00000004
     atom    8 type  1   force =     0.00000962    0.00000583    0.00000541
     atom    9 type  2   force =    -0.00000730   -0.00000417    0.00001107
     atom   10 type  2   force =     0.00000554   -0.00000611    0.00001091
     atom   11 type  1   force =    -0.00001028   -0.00001313    0.00000330
     atom   12 type  1   force =     0.00001018   -0.00000708    0.00000877
     atom   13 type  1   force =    -0.00000713    0.00000048   -0.00000119
     atom   14 type  1   force =     0.00000719    0.00000084   -0.00000491
     atom   15 type  1   force =    -0.00001429   -0.00000124   -0.00000618
     atom   16 type  1   force =     0.00001411   -0.00000107    0.00000205
     atom   17 type  2   force =    -0.00001427    0.00000043    0.00002603
     atom   18 type  2   force =     0.00001459    0.00000098    0.00002602
     atom   19 type  1   force =    -0.00000640    0.00000158    0.00000947
     atom   20 type  1   force =     0.00000630    0.00001707    0.00000959
     atom   21 type  2   force =    -0.00001097   -0.00000118    0.00002603
     atom   22 type  2   force =     0.00001291   -0.00000106    0.00002633
     atom   23 type  1   force =    -0.00000658   -0.00000129    0.00000965
     atom   24 type  1   force =     0.00000646   -0.00001703    0.00000977
     atom   25 type  1   force =    -0.00001441   -0.00000107    0.00002247
     atom   26 type  1   force =     0.00001424   -0.00000090    0.00001391
     atom   27 type  1   force =    -0.00000739    0.00000022    0.00001292
     atom   28 type  1   force =     0.00000745    0.00000058    0.00001655
     atom   29 type  2   force =    -0.00000783    0.00000497    0.00000701
     atom   30 type  2   force =     0.00000722    0.00000426   -0.00000022
     atom   31 type  1   force =    -0.00000987    0.00001179    0.00000462
     atom   32 type  1   force =     0.00000964    0.00000595   -0.00000143
     atom   33 type  2   force =    -0.00000790   -0.00000329   -0.00000032
     atom   34 type  2   force =     0.00000614   -0.00000528   -0.00000120
     atom   35 type  1   force =    -0.00001031   -0.00001310    0.00000002
     atom   36 type  1   force =     0.00001021   -0.00000695   -0.00000587
     atom   37 type  1   force =    -0.00000263    0.00000367   -0.00000926
     atom   38 type  1   force =     0.00000337    0.00000486   -0.00000585
     atom   39 type  1   force =     0.00000260   -0.00000496   -0.00001857
     atom   40 type  1   force =    -0.00000188   -0.00000295   -0.00001059
     atom   41 type  3   force =    -0.00000051   -0.00000044    0.00000155
     atom   42 type  3   force =    -0.00000056   -0.00000045   -0.00000231
     atom   43 type  3   force =    -0.00000029   -0.00000044    0.00000101
     atom   44 type  3   force =    -0.00000038   -0.00000049   -0.00000193
     atom   45 type  3   force =     0.00000038    0.00000086    0.00000175
     atom   46 type  3   force =     0.00000040    0.00000095   -0.00000246
     atom   47 type  3   force =     0.00000008    0.00000041    0.00000082
     atom   48 type  3   force =     0.00000009    0.00000039   -0.00000140
     atom   49 type  3   force =    -0.00000004   -0.00000001    0.00000095
     atom   50 type  3   force =    -0.00000006    0.00000004   -0.00000172

     Total force =     0.291646     Total SCF correction =     0.000103

     BFGS Geometry Optimization
     Energy error            =      0.0E+00 Ry
     Gradient error          =      9.7E-02 Ry/Bohr

     number of scf cycles    =   1
     number of bfgs steps    =   0

     energy             new  =   -3440.3588050316 Ry

     new trust radius        =       0.1011336482 bohr
     new conv_thr            =       0.0000000010 Ry


ATOMIC_POSITIONS (crystal)
O             0.0430095573        0.4457860333        0.2623049202
O             0.4557352065        0.4314433058        0.2663238653
O            -0.0011078777        0.0163822720        0.2979521613
O             0.4970841817        0.0061704683        0.2999867195
Ru            0.2486629446       -0.0080902294        0.3585693478
Ru            0.7476509314       -0.0086635554        0.3578101463
O             0.2475887992        0.2953104006        0.3622389505
O             0.7496153642        0.3019782657        0.3582222716
Ru            0.0026479413        0.4907155395        0.3599534557
Ru            0.4942449054        0.4898846596        0.3568862891
O             0.2470867906        0.6883842747        0.3538458310
O             0.7496837364        0.6816594544        0.3513092678
O            -0.0036215808       -0.0115976929        0.4117782979
O             0.4996469205       -0.0092272155        0.4113613138
O            -0.0023854650        0.5059071610        0.4459891806
O             0.4993688542        0.5058172869        0.4437640374
Ru           -0.0025442228        0.0024288406        0.5000010000
Ru            0.4990404583        0.0024076905        0.5000010000
O             0.2484489848        0.1940608059        0.5000010000
O             0.7476047486        0.1958432242        0.5000010000
Ru            0.2514043376        0.5035127703        0.5000010000
Ru            0.7454932628        0.5041936353        0.5000010000
O             0.2493098183        0.8120649441        0.5000010000
O             0.7474240498        0.8110390246        0.5000010000
O            -0.0023854650        0.5059071610        0.5540118194
O             0.4993688542        0.5058172869        0.5562369626
O            -0.0036215808       -0.0115976929        0.5882227021
O             0.4996469205       -0.0092272155        0.5886396862
Ru            0.2486629446       -0.0080902294        0.6414316522
Ru            0.7476509314       -0.0086635554        0.6421908537
O             0.2475887992        0.2953104006        0.6377620495
O             0.7496153642        0.3019782657        0.6417787284
Ru            0.0026479413        0.4907155395        0.6400475443
Ru            0.4942449054        0.4898846596        0.6431147109
O             0.2470867906        0.6883842747        0.6461551690
O             0.7496837364        0.6816594544        0.6486917322
O            -0.0011078777        0.0163822720        0.7020498387
O             0.4970841817        0.0061704683        0.7000152805
O             0.0430095573        0.4457860333        0.7376960798
O             0.4557352065        0.4314433058        0.7336771347
H             0.1989599020        0.4443756459        0.2571731008
H             0.1989599020        0.4443756459        0.7428268992
H             0.5661842756        0.4927705341        0.2412922173
H             0.5661842756        0.4927705341        0.7587077827
H             0.0077542609        0.2817685819        0.2613606690
H             0.0077542609        0.2817685819        0.7386393310
H             0.4941277620        0.1561429095        0.2793195922
H             0.4941277620        0.1561429095        0.7206804078
H             0.0002418711        0.9045234321        0.2654145642
H             0.0002418711        0.9045234321        0.7345854358



     Writing config-only to output data dir /storage/home/mgm6007/ixd4/Maria/Strain0_Files/RuO2-110-0-01234/RuO2-110-0-01234.save/
     NEW-OLD atomic charge density approx. for the potential

     Check: negative core charge=   -0.000001

     negative rho (up, down):  1.199E-04 0.000E+00

     add environment contribution to local potential
     Polarization accuracy = 3.6E-12, # of iterations =  44

     total cpu time spent up to now is    12315.0 secs

     per-process dynamical memory:   225.1 Mb

     Self-consistent Calculation

     iteration #  1     ecut=    50.00 Ry     beta= 0.70
     Davidson diagonalization with overlap
     ethr =  1.00E-06,  avg # of iterations = 11.5

     negative rho (up, down):  2.695E-04 0.000E+00

     add environment contribution to local potential
     Polarization accuracy = 2.4E-12, # of iterations =  45

     total cpu time spent up to now is    12541.6 secs

     total energy              =   -3440.36937689 Ry
     estimated scf accuracy    <       0.03054979 Ry
     electrostatic embedding   =      -0.03324894 Ry
     cavitation energy         =       0.02174124 Ry
     PV energy                 =      -0.08422099 Ry
     correction to one-el term =     181.57263673 Ry

     iteration #  2     ecut=    50.00 Ry     beta= 0.70
     Davidson diagonalization with overlap
     ethr =  8.26E-06,  avg # of iterations =  2.0

     negative rho (up, down):  1.678E-04 0.000E+00

     add environment contribution to local potential
     Polarization accuracy = 9.1E-12, # of iterations =  44

     total cpu time spent up to now is    12862.6 secs

     total energy              =   -3440.37013650 Ry
     estimated scf accuracy    <       0.01240743 Ry
     electrostatic embedding   =      -0.03381984 Ry
     cavitation energy         =       0.02177234 Ry
     PV energy                 =      -0.08420086 Ry
     correction to one-el term =     181.61803703 Ry

     iteration #  3     ecut=    50.00 Ry     beta= 0.70
     Davidson diagonalization with overlap
     ethr =  3.35E-06,  avg # of iterations =  1.5

     negative rho (up, down):  8.007E-05 0.000E+00

     add environment contribution to local potential
     Polarization accuracy = 7.6E-12, # of iterations =  44

     total cpu time spent up to now is    13192.4 secs

     total energy              =   -3440.36989883 Ry
     estimated scf accuracy    <       0.01446426 Ry
     electrostatic embedding   =      -0.03424878 Ry
     cavitation energy         =       0.02176537 Ry
     PV energy                 =      -0.08421869 Ry
     correction to one-el term =     181.47730157 Ry

     iteration #  4     ecut=    50.00 Ry     beta= 0.70
     Davidson diagonalization with overlap
     ethr =  3.35E-06,  avg # of iterations =  2.0

     negative rho (up, down):  2.060E-05 0.000E+00

     add environment contribution to local potential
     Polarization accuracy = 6.3E-12, # of iterations =  44

     total cpu time spent up to now is    13462.0 secs

     total energy              =   -3440.37056218 Ry
     estimated scf accuracy    <       0.00229810 Ry
     electrostatic embedding   =      -0.03471495 Ry
     cavitation energy         =       0.02176314 Ry
     PV energy                 =      -0.08423145 Ry
     correction to one-el term =     181.32882351 Ry

     iteration #  5     ecut=    50.00 Ry     beta= 0.70
     Davidson diagonalization with overlap
     ethr =  6.21E-07,  avg # of iterations = 17.0

     negative rho (up, down):  1.047E-05 0.000E+00

     add environment contribution to local potential
     Polarization accuracy = 5.8E-12, # of iterations =  44

     total cpu time spent up to now is    13729.7 secs

     total energy              =   -3440.37060978 Ry
     estimated scf accuracy    <       0.00090084 Ry
     electrostatic embedding   =      -0.03520099 Ry
     cavitation energy         =       0.02176139 Ry
     PV energy                 =      -0.08424099 Ry
     correction to one-el term =     181.12321923 Ry

     iteration #  6     ecut=    50.00 Ry     beta= 0.70
     Davidson diagonalization with overlap
     ethr =  2.43E-07,  avg # of iterations =  1.0

     negative rho (up, down):  2.634E-06 0.000E+00

[...]
     atom   25 type  1   force =     0.21908523   -0.48392191  -24.89738960
     atom   26 type  1   force =    -0.22023454   -0.50651127  -25.84691062
     atom   27 type  1   force =     0.32605104    0.66680034  -37.45296215
     atom   28 type  1   force =    -0.33765483    0.66413011  -37.11475211
     atom   29 type  2   force =     0.82809099    2.81588055 -166.09161214
     atom   30 type  2   force =    -0.74360360    2.43955339 -167.51913010
     atom   31 type  1   force =     0.16790913    1.28350490  -58.32892245
     atom   32 type  1   force =    -0.21427318    0.87872756  -61.78801167
     atom   33 type  2   force =     2.66183514   -2.46360786 -165.81180199
     atom   34 type  2   force =    -2.68854270   -3.20019575 -167.81212879
     atom   35 type  1   force =     0.05030328   -1.92687326  -65.61866597
     atom   36 type  1   force =    -0.09223645   -1.33060780  -68.07034127
     atom   37 type  1   force =     0.45423496    0.72897924  -89.91337720
     atom   38 type  1   force =    -0.49101632    2.57370383  -90.66340514
     atom   39 type  1   force =     2.41598289   -1.93331123  -90.66881306
     atom   40 type  1   force =    -0.64938438   -0.25812038  -91.56591947
     atom   41 type  3   force =    -2.15746837   -0.47527512   15.30543483
     atom   42 type  3   force =    -2.15746837   -0.47527512  -15.30543483
     atom   43 type  3   force =    -2.48435185   -1.52042665   16.22273760
     atom   44 type  3   force =    -2.48435185   -1.52042665  -16.22273760
     atom   45 type  3   force =     0.76225486    2.70132679   15.06395918
     atom   46 type  3   force =     0.76225486    2.70132679  -15.06395918
     atom   47 type  3   force =    -0.15291744   -1.72331964   16.25954021
     atom   48 type  3   force =    -0.15291744   -1.72331964  -16.25954021
     atom   49 type  3   force =     0.06138575    2.41017878   17.12598065
     atom   50 type  3   force =     0.06138575    2.41017878  -17.12598065
     The core correction contribution to forces
     atom    1 type  1   force =    -0.01115812    0.01307401   -0.00409937
     atom    2 type  1   force =    -0.01315499   -0.00762626    0.00251516
     atom    3 type  1   force =    -0.00005729    0.01356275    0.00403019
     atom    4 type  1   force =     0.00014498   -0.01325180   -0.00263399
     atom    5 type  2   force =     0.00000000    0.00000000    0.00000000
     atom    6 type  2   force =     0.00000000    0.00000000    0.00000000
     atom    7 type  1   force =     0.00012900   -0.00028023    0.00134011
     atom    8 type  1   force =    -0.00003158    0.00018689    0.00055554
     atom    9 type  2   force =     0.00000000    0.00000000    0.00000000
     atom   10 type  2   force =     0.00000000    0.00000000    0.00000000
     atom   11 type  1   force =     0.00014895    0.00029888   -0.00071730
     atom   12 type  1   force =     0.00000745   -0.00030401   -0.00096191
     atom   13 type  1   force =    -0.00006051   -0.00079077    0.00028714
     atom   14 type  1   force =     0.00009999   -0.00027357    0.00068984
     atom   15 type  1   force =     0.00008226    0.00066842    0.00192055
     atom   16 type  1   force =    -0.00001865    0.00066249   -0.00012620
     atom   17 type  2   force =     0.00000000    0.00000000    0.00000000
     atom   18 type  2   force =     0.00000000    0.00000000    0.00000000
     atom   19 type  1   force =    -0.00012774    0.00001724   -0.00000203
     atom   20 type  1   force =     0.00008438    0.00009120   -0.00000201
     atom   21 type  2   force =     0.00000000    0.00000000    0.00000000
     atom   22 type  2   force =     0.00000000    0.00000000    0.00000000
     atom   23 type  1   force =    -0.00013866    0.00006840   -0.00000189
     atom   24 type  1   force =     0.00007538    0.00006934   -0.00000185
     atom   25 type  1   force =     0.00008226    0.00066852   -0.00192313
     atom   26 type  1   force =    -0.00001867    0.00066258    0.00012389
     atom   27 type  1   force =    -0.00006050   -0.00079096   -0.00028941
     atom   28 type  1   force =     0.00009999   -0.00027372   -0.00069215
     atom   29 type  2   force =     0.00000000    0.00000000    0.00000000
     atom   30 type  2   force =     0.00000000    0.00000000    0.00000000
     atom   31 type  1   force =     0.00012904   -0.00028022   -0.00134204
     atom   32 type  1   force =    -0.00003164    0.00018696   -0.00055752
     atom   33 type  2   force =     0.00000000    0.00000000    0.00000000
     atom   34 type  2   force =     0.00000000    0.00000000    0.00000000
     atom   35 type  1   force =     0.00014902    0.00029885    0.00071525
     atom   36 type  1   force =     0.00000742   -0.00030407    0.00095980
     atom   37 type  1   force =    -0.00005730    0.01356486   -0.00403485
     atom   38 type  1   force =     0.00014497   -0.01325364    0.00263029
     atom   39 type  1   force =    -0.01115874    0.01307435    0.00409834
     atom   40 type  1   force =    -0.01315568   -0.00762655   -0.00251784
     atom   41 type  3   force =     0.00000000    0.00000000    0.00000000
     atom   42 type  3   force =     0.00000000    0.00000000    0.00000000
     atom   43 type  3   force =     0.00000000    0.00000000    0.00000000
     atom   44 type  3   force =     0.00000000    0.00000000    0.00000000
     atom   45 type  3   force =     0.00000000    0.00000000    0.00000000
     atom   46 type  3   force =     0.00000000    0.00000000    0.00000000
     atom   47 type  3   force =     0.00000000    0.00000000    0.00000000
     atom   48 type  3   force =     0.00000000    0.00000000    0.00000000
     atom   49 type  3   force =     0.00000000    0.00000000    0.00000000
     atom   50 type  3   force =     0.00000000    0.00000000    0.00000000
     The Hubbard contrib.    to forces
     atom    1 type  1   force =     0.00000000    0.00000000    0.00000000
     atom    2 type  1   force =     0.00000000    0.00000000    0.00000000
     atom    3 type  1   force =     0.00000000    0.00000000    0.00000000
     atom    4 type  1   force =     0.00000000    0.00000000    0.00000000
     atom    5 type  2   force =     0.00000000    0.00000000    0.00000000
     atom    6 type  2   force =     0.00000000    0.00000000    0.00000000
     atom    7 type  1   force =     0.00000000    0.00000000    0.00000000
     atom    8 type  1   force =     0.00000000    0.00000000    0.00000000
     atom    9 type  2   force =     0.00000000    0.00000000    0.00000000
     atom   10 type  2   force =     0.00000000    0.00000000    0.00000000
     atom   11 type  1   force =     0.00000000    0.00000000    0.00000000
     atom   12 type  1   force =     0.00000000    0.00000000    0.00000000
     atom   13 type  1   force =     0.00000000    0.00000000    0.00000000
     atom   14 type  1   force =     0.00000000    0.00000000    0.00000000
     atom   15 type  1   force =     0.00000000    0.00000000    0.00000000
     atom   16 type  1   force =     0.00000000    0.00000000    0.00000000
     atom   17 type  2   force =     0.00000000    0.00000000    0.00000000
     atom   18 type  2   force =     0.00000000    0.00000000    0.00000000
     atom   19 type  1   force =     0.00000000    0.00000000    0.00000000
     atom   20 type  1   force =     0.00000000    0.00000000    0.00000000
     atom   21 type  2   force =     0.00000000    0.00000000    0.00000000
     atom   22 type  2   force =     0.00000000    0.00000000    0.00000000
     atom   23 type  1   force =     0.00000000    0.00000000    0.00000000
     atom   24 type  1   force =     0.00000000    0.00000000    0.00000000
     atom   25 type  1   force =     0.00000000    0.00000000    0.00000000
     atom   26 type  1   force =     0.00000000    0.00000000    0.00000000
     atom   27 type  1   force =     0.00000000    0.00000000    0.00000000
     atom   28 type  1   force =     0.00000000    0.00000000    0.00000000
     atom   29 type  2   force =     0.00000000    0.00000000    0.00000000
     atom   30 type  2   force =     0.00000000    0.00000000    0.00000000
     atom   31 type  1   force =     0.00000000    0.00000000    0.00000000
     atom   32 type  1   force =     0.00000000    0.00000000    0.00000000
     atom   33 type  2   force =     0.00000000    0.00000000    0.00000000
     atom   34 type  2   force =     0.00000000    0.00000000    0.00000000
     atom   35 type  1   force =     0.00000000    0.00000000    0.00000000
     atom   36 type  1   force =     0.00000000    0.00000000    0.00000000
     atom   37 type  1   force =     0.00000000    0.00000000    0.00000000
     atom   38 type  1   force =     0.00000000    0.00000000    0.00000000
     atom   39 type  1   force =     0.00000000    0.00000000    0.00000000
     atom   40 type  1   force =     0.00000000    0.00000000    0.00000000
     atom   41 type  3   force =     0.00000000    0.00000000    0.00000000
     atom   42 type  3   force =     0.00000000    0.00000000    0.00000000
     atom   43 type  3   force =     0.00000000    0.00000000    0.00000000
     atom   44 type  3   force =     0.00000000    0.00000000    0.00000000
     atom   45 type  3   force =     0.00000000    0.00000000    0.00000000
     atom   46 type  3   force =     0.00000000    0.00000000    0.00000000
     atom   47 type  3   force =     0.00000000    0.00000000    0.00000000
     atom   48 type  3   force =     0.00000000    0.00000000    0.00000000
     atom   49 type  3   force =     0.00000000    0.00000000    0.00000000
     atom   50 type  3   force =     0.00000000    0.00000000    0.00000000
     The SCF correction term to forces
     atom    1 type  1   force =     0.00000031    0.00000127   -0.00000137
     atom    2 type  1   force =     0.00000033    0.00000081   -0.00000041
     atom    3 type  1   force =     0.00000027   -0.00000010   -0.00000089
     atom    4 type  1   force =    -0.00000022   -0.00000004   -0.00000083
     atom    5 type  2   force =     0.00000017    0.00000039    0.00000025
     atom    6 type  2   force =    -0.00000005    0.00000001    0.00000079
     atom    7 type  1   force =     0.00000018    0.00000021   -0.00000012
     atom    8 type  1   force =    -0.00000026    0.00000068    0.00000010
     atom    9 type  2   force =    -0.00000028   -0.00000041   -0.00000009
     atom   10 type  2   force =     0.00000033   -0.00000010   -0.00000137
     atom   11 type  1   force =     0.00000046   -0.00000049   -0.00000048
     atom   12 type  1   force =    -0.00000052   -0.00000072   -0.00000008
     atom   13 type  1   force =    -0.00000020    0.00000009    0.00000101
     atom   14 type  1   force =    -0.00000004   -0.00000001    0.00000095
     atom   15 type  1   force =    -0.00000003   -0.00000041    0.00000081
     atom   16 type  1   force =     0.00000010   -0.00000043    0.00000074
     atom   17 type  2   force =    -0.00000097    0.00000018    0.00000000
     atom   18 type  2   force =     0.00000081    0.00000021    0.00000000
     atom   19 type  1   force =     0.00000007   -0.00000006    0.00000000
     atom   20 type  1   force =    -0.00000003   -0.00000084    0.00000000
     atom   21 type  2   force =     0.00000040   -0.00000012    0.00000000
     atom   22 type  2   force =    -0.00000056   -0.00000002    0.00000000
     atom   23 type  1   force =    -0.00000002   -0.00000023    0.00000000
     atom   24 type  1   force =    -0.00000001    0.00000044    0.00000000
     atom   25 type  1   force =    -0.00000003   -0.00000041   -0.00000080
     atom   26 type  1   force =     0.00000010   -0.00000043   -0.00000074
     atom   27 type  1   force =    -0.00000020    0.00000009   -0.00000101
     atom   28 type  1   force =    -0.00000004   -0.00000001   -0.00000095
     atom   29 type  2   force =     0.00000017    0.00000039   -0.00000025
     atom   30 type  2   force =    -0.00000005    0.00000000   -0.00000078
     atom   31 type  1   force =     0.00000018    0.00000021    0.00000012
     atom   32 type  1   force =    -0.00000026    0.00000068   -0.00000009
     atom   33 type  2   force =    -0.00000028   -0.00000040    0.00000009
     atom   34 type  2   force =     0.00000033   -0.00000010    0.00000138
     atom   35 type  1   force =     0.00000046   -0.00000049    0.00000048
     atom   36 type  1   force =    -0.00000052   -0.00000071    0.00000008
     atom   37 type  1   force =     0.00000027   -0.00000010    0.00000089
     atom   38 type  1   force =    -0.00000022   -0.00000004    0.00000083
     atom   39 type  1   force =     0.00000031    0.00000127    0.00000137
     atom   40 type  1   force =     0.00000033    0.00000081    0.00000041
     atom   41 type  3   force =     0.00000005    0.00000010   -0.00000013
     atom   42 type  3   force =     0.00000005    0.00000010    0.00000013
     atom   43 type  3   force =    -0.00000005    0.00000004   -0.00000002
     atom   44 type  3   force =    -0.00000005    0.00000004    0.00000002
     atom   45 type  3   force =     0.00000000    0.00000003   -0.00000016
     atom   46 type  3   force =     0.00000000    0.00000003    0.00000016
     atom   47 type  3   force =    -0.00000001    0.00000009   -0.00000013
     atom   48 type  3   force =    -0.00000001    0.00000009    0.00000013
     atom   49 type  3   force =     0.00000004   -0.00000006   -0.00000014
     atom   50 type  3   force =     0.00000004   -0.00000006    0.00000014

     Total force =     0.000459     Total SCF correction =     0.000006
     Energy error            =      3.7E-07 Ry
     Gradient error          =      9.8E-05 Ry/Bohr

     bfgs converged in  42 scf cycles and  41 bfgs steps
     (criteria: energy <  1.0E-04 Ry, force <  1.0E-04 Ry/Bohr)

     End of BFGS Geometry Optimization

     Final energy             =   -3440.3893392466 Ry

     File /storage/home/mgm6007/ixd4/Maria/Strain0_Files/RuO2-110-0-01234/RuO2-110-0-01234.bfgs deleted, as requested
Begin final coordinates

ATOMIC_POSITIONS (crystal)
O             0.0382201383        0.4344151475        0.2614787579
O             0.4592885607        0.4311015968        0.2654033935
O            -0.0012565928        0.0120390665        0.2967493130
O             0.4964686922        0.0097268087        0.2990684653
Ru            0.2490635552       -0.0077870335        0.3585704329
Ru            0.7468599621       -0.0085630266        0.3576394756
O             0.2481316960        0.3003273194        0.3621272076
O             0.7487672626        0.3028460819        0.3581912776
Ru            0.0004620046        0.4909795226        0.3594000559
Ru            0.4962807868        0.4911967240        0.3565899756
O             0.2472067986        0.6843308330        0.3533368612
O             0.7495402988        0.6813745272        0.3502924962
O            -0.0032934470       -0.0107864967        0.4112773134
O             0.4990766572       -0.0084976738        0.4111571732
O            -0.0025733060        0.5084679748        0.4457586055
O             0.5002807723        0.5087628003        0.4440526178
Ru           -0.0019065039        0.0054640107        0.5000010000
Ru            0.4983741061        0.0054406617        0.5000010000
O             0.2481503263        0.1959911491        0.5000010000
O             0.7480182024        0.1963291449        0.5000010000
Ru            0.2511800700        0.5067192610        0.5000010000
Ru            0.7463869435        0.5073042318        0.5000010000
O             0.2486655566        0.8164324901        0.5000010000
O             0.7479411370        0.8166672311        0.5000010000
O            -0.0025733060        0.5084679748        0.5542423945
O             0.5002807723        0.5087628003        0.5559483822
O            -0.0032934470       -0.0107864967        0.5887236866
O             0.4990766572       -0.0084976738        0.5888438268
Ru            0.2490635552       -0.0077870335        0.6414305671
Ru            0.7468599621       -0.0085630266        0.6423615244
O             0.2481316960        0.3003273194        0.6378737924
O             0.7487672626        0.3028460819        0.6418097224
Ru            0.0004620046        0.4909795226        0.6406009441
Ru            0.4962807868        0.4911967240        0.6434110244
O             0.2472067986        0.6843308330        0.6466641388
O             0.7495402988        0.6813745272        0.6497085038
O            -0.0012565928        0.0120390665        0.7032526870
O             0.4964686922        0.0097268087        0.7009335347
O             0.0382201383        0.4344151475        0.7385222421
O             0.4592885607        0.4311015968        0.7345976065
H             0.1951651951        0.4453852259        0.2562303871
H             0.1951651951        0.4453852259        0.7437696129
H             0.5693447307        0.4942513926        0.2408487395
H             0.5693447307        0.4942513926        0.7591512605
H             0.0121953182        0.2762657628        0.2623421334
H             0.0121953182        0.2762657628        0.7376578666
H             0.4931937560        0.1542141245        0.2789436724
H             0.4931937560        0.1542141245        0.7210563276
H            -0.0005577585        0.8989922316        0.2662432446
H            -0.0005577585        0.8989922316        0.7337567554
End final coordinates



     Writing all to output data dir /storage/home/mgm6007/ixd4/Maria/Strain0_Files/RuO2-110-0-01234/RuO2-110-0-01234.save/
 
     init_run     :    536.66s CPU   1087.35s WALL (       1 calls)
     electrons    :  75683.81s CPU 177927.17s WALL (      42 calls)
     update_pot   :     71.08s CPU     71.14s WALL (      41 calls)
     forces       :     77.65s CPU     78.15s WALL (      42 calls)

     Called by init_run:
     wfcinit      :      1.05s CPU      1.05s WALL (       1 calls)
     potinit      :    384.31s CPU    776.87s WALL (       1 calls)
     hinit0       :    150.83s CPU    308.91s WALL (       1 calls)

     Called by electrons:
     c_bands      :   2013.44s CPU   2015.80s WALL (     802 calls)
     sum_band     :    387.42s CPU    388.17s WALL (     802 calls)
     v_of_rho     :    114.81s CPU    115.09s WALL (     806 calls)
     newd         :     58.22s CPU     58.27s WALL (     806 calls)
     PAW_pot      :     97.69s CPU     97.80s WALL (     847 calls)
     mix_rho      :    603.83s CPU    604.46s WALL (     802 calls)

     Called by c_bands:
     init_us_2    :     21.28s CPU     21.31s WALL (    3376 calls)
     init_us_2:cp :     21.25s CPU     21.29s WALL (    3376 calls)
     cegterg      :   1926.21s CPU   1928.34s WALL (    1604 calls)

     Called by *egterg:
     cdiaghg      :    226.17s CPU    226.38s WALL (    4308 calls)
     h_psi        :   1027.71s CPU   1028.79s WALL (    4468 calls)
     s_psi        :    151.93s CPU    152.18s WALL (    4468 calls)
     g_psi        :      4.94s CPU      4.95s WALL (    2862 calls)

     Called by h_psi:
     h_psi:calbec :    153.44s CPU    153.57s WALL (    4468 calls)
     vloc_psi     :    708.06s CPU    708.83s WALL (    4468 calls)
     add_vuspsi   :    153.05s CPU    153.23s WALL (    4468 calls)

     General routines
     calbec       :    243.16s CPU    243.43s WALL (    6490 calls)
     fft          :  17858.77s CPU  17861.32s WALL (   10935 calls)
     ffts         :    216.66s CPU    216.77s WALL (  333610 calls)
     fftw         :    610.54s CPU    611.02s WALL ( 1858932 calls)
     interpolate  :  17788.65s CPU  17791.18s WALL (     806 calls)
 
     Parallel routines
 
     Environ routines
 
     PWSCF        :     22h22m CPU   2d 4h21m WALL

 
   This run was terminated on:  15:52:18  23Jul2023            

=------------------------------------------------------------------------------=
   JOB DONE.
=------------------------------------------------------------------------------=
