
     Program PWSCF v.7.2 starts on 18Jul2023 at 16:41:26 
        Git branch: heads/qe-7.2
        Last git commit: b4c5e8deeb7d1863e7553a87b45f8d22c21926a5
        Last git commit date: Mon Mar 27 16:12:09 2023 +0000
        Last git commit subject: Merge branch 'merge_fix_hubbard' into 'develop'

     This program is part of the open-source Quantum ESPRESSO suite
     for quantum simulation of materials; please cite
         "P. Giannozzi et al., J. Phys.:Condens. Matter 21 395502 (2009);
         "P. Giannozzi et al., J. Phys.:Condens. Matter 29 465901 (2017);
         "P. Giannozzi et al., J. Chem. Phys. 152 154105 (2020);
          URL http://www.quantum-espresso.org", 
     in publications or presentations arising from this work. More details at
     http://www.quantum-espresso.org/quote

     Parallel version (MPI), running on    20 processors

     MPI processes distributed on     1 nodes
     104588 MiB available memory on the printing compute node when the environment starts
 
     Reading input from RuO2-110-0-03.in

     Current dimensions of program PWSCF are:
     Max number of different atomic species (ntypx) = 10
     Max number of k-points (npk) =  40000
     Max angular momentum in pseudopotentials (lmaxx) =  4
 
     Reading input from environ.in:
     * Environ restarting
     * setting up water environment
     * using electronic solvent mode
     * setting boundary derivatives method to SCCS default
     
     file O.pbe-n-kjpaw_psl.0.1.UPF: wavefunction(s)  2P renormalized
     Message from routine setup:
     using ibrav=0 with symmetry is DISCOURAGED, use correct ibrav instead
 
     R & G space division:  proc/nbgrp/npool/nimage =      20
     Subspace diagonalization in iterative solution of the eigenvalue problem:
     one sub-group per band group will be used
     scalapack distributed-memory algorithm (size of sub-group:  2*  2 procs)

 
     Parallelization info
     --------------------
     sticks:   dense  smooth     PW     G-vecs:    dense   smooth      PW
     Min         276     110     29                54830    13868    1873
     Max         277     111     30                54841    13883    1882
     Sum        5527    2209    585              1096679   277485   37533
 
     Using Slab Decomposition
 


     bravais-lattice index     =            0
     lattice parameter (alat)  =      12.3893  a.u.
     unit-cell volume          =    5808.5831 (a.u.)^3
     number of atoms/cell      =           44
     number of atomic types    =            3
     number of electrons       =       364.00
     number of Kohn-Sham states=          218
     kinetic-energy cutoff     =      50.0000  Ry
     charge density cutoff     =     500.0000  Ry
     scf convergence threshold =      1.0E-09
     mixing beta               =       0.7000
     number of iterations used =            8  local-TF  mixing
     energy convergence thresh.=      1.0E-04
     force convergence thresh. =      1.0E-04
     Exchange-correlation= PBE
                           (   1   4   3   4   0   0   0)
     nstep                     =          200


     ================================================================================
 
                                  Environ Setup Summary

     ================================================================================
 
     Please cite

          O. Andreussi, I. Dabo and N. Marzari, J. Chem. Phys. 136, 064102 (2012)

     in publications or presentations arising from this work.

     ================================================================================
 
     Parameters
     ==========

     compensation onset threshold      =               0.1000E+00
     static permittivity               =                    78.30
     surface tension in input (dyn/cm) =                    47.90
     surface tension in internal units =               0.6153E-04
     external pressure in input (GPa)  =                    -0.36
     external pressure in inter. units =              -0.2447E-04

     Solvent Boundary
     ================

     solvent mode                      =               electronic
     derivatives method                =                    chain
     numerical core for derivatives    =                      fft
     switching function adopted        =                     SCCS
     density limit for vacuum region   =               0.5000E-02
     density limit for bulk solvent    =               0.1000E-03

     Electrostatic Setup
     ===================

     electrostatic problem to solve    =              generalized
     numerical solver adopted          =                       cg
     type of auxiliary density adopted =                     none
     numerical core for poisson        =                      fft
     type of pbc corrections           =                parabolic
     numerical core for corrections    =                      1da

     ================================================================================
 

     celldm(1)=  12.389316  celldm(2)=   0.000000  celldm(3)=   0.000000
     celldm(4)=   0.000000  celldm(5)=   0.000000  celldm(6)=   0.000000

     crystal axes: (cart. coord. in units of alat)
               a(1) = (   1.000000   0.000000   0.000000 )  
               a(2) = (   0.000000   0.904766   0.000000 )  
               a(3) = (   0.000000   0.000000   3.375918 )  

     reciprocal axes: (cart. coord. in units 2 pi/alat)
               b(1) = (  1.000000  0.000000  0.000000 )  
               b(2) = (  0.000000  1.105258  0.000000 )  
               b(3) = (  0.000000  0.000000  0.296216 )  


     PseudoPot. # 1 for O  read from file:
     /gpfs/group/ixd4/default/Simon/pseudopotentials/materialscloud/SSSP_1.3.0_PBE_efficiency/O.pbe-n-kjpaw_psl.0.1.UPF
     MD5 check sum: 0234752ac141de4415c5fc33072bef88
     Pseudo is Projector augmented-wave + core cor, Zval =  6.0
     Generated using "atomic" code by A. Dal Corso  v.5.0.99 svn rev. 10869
     Shape of augmentation charge: BESSEL
     Using radial grid of 1095 points,  4 beta functions with: 
                l(1) =   0
                l(2) =   0
                l(3) =   1
                l(4) =   1
     Q(r) pseudized with 0 coefficients 


     PseudoPot. # 2 for Ru read from file:
     /gpfs/group/ixd4/default/Simon/pseudopotentials/materialscloud/SSSP_1.3.0_PBE_efficiency/Ru_ONCV_PBE-1.0.oncvpsp.upf
     MD5 check sum: be037bb81c227cfb9b1461a9f099f4bd
     Pseudo is Norm-conserving, Zval = 16.0
     Generated using ONCVPSP code by D. R. Hamann
     Using radial grid of 1458 points,  6 beta functions with: 
                l(1) =   0
                l(2) =   0
                l(3) =   1
                l(4) =   1
                l(5) =   2
                l(6) =   2

     PseudoPot. # 3 for H  read from file:
     /gpfs/group/ixd4/default/Simon/pseudopotentials/materialscloud/SSSP_1.3.0_PBE_efficiency/H.pbe-rrkjus_psl.1.0.0.UPF
     MD5 check sum: f52b6d4d1c606e5624b1dc7b2218f220
     Pseudo is Ultrasoft, Zval =  1.0
     Generated using "atomic" code by A. Dal Corso  v.5.1
     Using radial grid of  929 points,  2 beta functions with: 
                l(1) =   0
                l(2) =   0
     Q(r) pseudized with 0 coefficients 


     atomic species   valence    mass     pseudopotential
        O              6.00    15.99940     O ( 1.00)
        Ru            16.00   101.07000     Ru( 1.00)
        H              1.00     1.00794     H ( 1.00)

      2 Sym. Ops. (no inversion) found



   Cartesian axes

     site n.     atom                  positions (alat units)
         1           O   tau(   1) = (   0.0070050   0.4552193   0.9171664  )
         2           O   tau(   2) = (   0.4780830   0.4549080   0.9248886  )
         3           O   tau(   3) = (  -0.0008723   0.0007177   1.0426571  )
         4           O   tau(   4) = (   0.4968080  -0.0011902   1.0129523  )
         5           Ru  tau(   5) = (   0.2439411   0.0024644   1.2047257  )
         6           Ru  tau(   6) = (   0.7519411   0.0026930   1.2022414  )
         7           O   tau(   7) = (   0.2475600   0.2775504   1.2122819  )
         8           O   tau(   8) = (   0.7517832   0.2810027   1.2039464  )
         9           Ru  tau(   9) = (   0.0021863   0.4547106   1.2088970  )
        10           Ru  tau(  10) = (   0.5036744   0.4552470   1.1859937  )
        11           O   tau(  11) = (   0.2472539   0.6315526   1.2131645  )
        12           O   tau(  12) = (   0.7520493   0.6281776   1.2054772  )
        13           O   tau(  13) = (  -0.0035063   0.0015306   1.3908502  )
        14           O   tau(  14) = (   0.5016083   0.0020451   1.3923170  )
        15           O   tau(  15) = (  -0.0000773   0.4540279   1.5067222  )
        16           O   tau(  16) = (   0.4963743   0.4542258   1.4885744  )
        17           Ru  tau(  17) = (  -0.0047399   0.0022357   1.6879622  )
        18           Ru  tau(  18) = (   0.5013209   0.0014083   1.6879622  )
        19           O   tau(  19) = (   0.2503017   0.1742444   1.6879622  )
        20           O   tau(  20) = (   0.7467070   0.1806401   1.6879622  )
        21           Ru  tau(  21) = (   0.2552587   0.4539570   1.6879622  )
        22           Ru  tau(  22) = (   0.7439240   0.4540696   1.6879622  )
        23           O   tau(  23) = (   0.2503588   0.7341202   1.6879622  )
        24           O   tau(  24) = (   0.7465549   0.7276355   1.6879622  )
        25           O   tau(  25) = (  -0.0000773   0.4540279   1.8691988  )
        26           O   tau(  26) = (   0.4963743   0.4542258   1.8873465  )
        27           O   tau(  27) = (  -0.0035063   0.0015306   1.9850708  )
        28           O   tau(  28) = (   0.5016083   0.0020451   1.9836040  )
        29           Ru  tau(  29) = (   0.2439411   0.0024644   2.1711952  )
        30           Ru  tau(  30) = (   0.7519411   0.0026930   2.1736795  )
        31           O   tau(  31) = (   0.2475600   0.2775504   2.1636390  )
        32           O   tau(  32) = (   0.7517832   0.2810027   2.1719745  )
        33           Ru  tau(  33) = (   0.0021863   0.4547106   2.1670239  )
        34           Ru  tau(  34) = (   0.5036744   0.4552470   2.1899272  )
        35           O   tau(  35) = (   0.2472539   0.6315526   2.1627564  )
        36           O   tau(  36) = (   0.7520493   0.6281776   2.1704437  )
        37           O   tau(  37) = (  -0.0008723   0.0007177   2.3332673  )
        38           O   tau(  38) = (   0.4968080  -0.0011902   2.3629720  )
        39           O   tau(  39) = (   0.0070050   0.4552193   2.4587545  )
        40           O   tau(  40) = (   0.4780830   0.4549080   2.4510323  )
        41           H   tau(  41) = (   0.1511892   0.4578991   0.8638349  )
        42           H   tau(  42) = (   0.1511892   0.4578991   2.5120827  )
        43           H   tau(  43) = (   0.4957906   0.0597671   0.8798770  )
        44           H   tau(  44) = (   0.4957906   0.0597671   2.4960406  )

     number of k points=     2  Marzari-Vanderbilt smearing, width (Ry)=  0.0300
                       cart. coord. in units 2pi/alat
        k(    1) = (   0.2500000   0.2763144   0.0000000), wk =   1.0000000
        k(    2) = (  -0.2500000   0.2763144   0.0000000), wk =   1.0000000

     Dense  grid:  1096679 G-vectors     FFT dimensions: (  90,  80, 300)

     Smooth grid:   277485 G-vectors     FFT dimensions: (  60,  54, 192)

     Estimated max dynamical RAM per process >     179.53 MB

     Estimated total dynamical RAM >       3.51 GB

     Check: negative core charge=   -0.000001

     Initial potential from superposition of free atoms

     starting charge     363.9933, renormalised to     364.0000

     add environment contribution to local potential
     Polarization accuracy = 5.3E-12, # of iterations =  24

     negative rho (up, down):  3.220E-05 0.000E+00
     Starting wfcs are  236 randomized atomic wfcs
     Checking if some PAW data can be deallocated... 

     total cpu time spent up to now is     2626.2 secs

     per-process dynamical memory:   150.9 Mb

     Self-consistent Calculation

     iteration #  1     ecut=    50.00 Ry     beta= 0.70
     Davidson diagonalization with overlap
     ethr =  1.00E-02,  avg # of iterations =  2.0

     total cpu time spent up to now is     3280.4 secs

     total energy              =   -3429.96932571 Ry
     estimated scf accuracy    <      10.26286139 Ry
     electrostatic embedding   =      -0.00175640 Ry
     cavitation energy         =       0.01964551 Ry
     PV energy                 =      -0.08286882 Ry
     correction to one-el term =     218.57044799 Ry

     iteration #  2     ecut=    50.00 Ry     beta= 0.70
     Davidson diagonalization with overlap
     ethr =  2.82E-03,  avg # of iterations =  2.0

     total cpu time spent up to now is     3933.9 secs

     total energy              =   -3432.22880273 Ry
     estimated scf accuracy    <       2.42573434 Ry
     electrostatic embedding   =      -0.00252965 Ry
     cavitation energy         =       0.01973409 Ry
     PV energy                 =      -0.08302246 Ry
     correction to one-el term =     218.57252442 Ry

     iteration #  3     ecut=    50.00 Ry     beta= 0.70
     Davidson diagonalization with overlap
     ethr =  6.66E-04,  avg # of iterations =  1.0

     total cpu time spent up to now is     4615.9 secs

     total energy              =   -3432.46384322 Ry
     estimated scf accuracy    <       0.38753605 Ry
     electrostatic embedding   =      -0.00287001 Ry
     cavitation energy         =       0.01979546 Ry
     PV energy                 =      -0.08310045 Ry
     correction to one-el term =     218.57341288 Ry

     iteration #  4     ecut=    50.00 Ry     beta= 0.70
     Davidson diagonalization with overlap
     ethr =  1.06E-04,  avg # of iterations =  2.0

     total cpu time spent up to now is     5275.9 secs

     total energy              =   -3432.49555326 Ry
     estimated scf accuracy    <       0.31680556 Ry
     electrostatic embedding   =      -0.00296162 Ry
     cavitation energy         =       0.01995938 Ry
     PV energy                 =      -0.08261800 Ry
     correction to one-el term =     218.57337584 Ry

     iteration #  5     ecut=    50.00 Ry     beta= 0.70
     Davidson diagonalization with overlap
     ethr =  8.70E-05,  avg # of iterations =  1.0

     add environment contribution to local potential
     Polarization accuracy = 4.0E-12, # of iterations =  35

     total cpu time spent up to now is     5855.1 secs

     total energy              =   -3432.49740849 Ry
     estimated scf accuracy    <       0.08483633 Ry
     electrostatic embedding   =      -0.00306907 Ry
     cavitation energy         =       0.02021146 Ry
     PV energy                 =      -0.08202268 Ry
     correction to one-el term =     218.57335884 Ry

     iteration #  6     ecut=    50.00 Ry     beta= 0.70
     Davidson diagonalization with overlap
     ethr =  2.33E-05,  avg # of iterations =  2.0

     add environment contribution to local potential
     Polarization accuracy = 2.6E-12, # of iterations =  38

     total cpu time spent up to now is     6404.7 secs

     total energy              =   -3432.52601381 Ry
     estimated scf accuracy    <       0.05512511 Ry
     electrostatic embedding   =      -0.03083800 Ry
     cavitation energy         =       0.02053712 Ry
     PV energy                 =      -0.08118574 Ry
     correction to one-el term =     195.65889976 Ry

     iteration #  7     ecut=    50.00 Ry     beta= 0.70
     Davidson diagonalization with overlap
     ethr =  1.51E-05,  avg # of iterations =  2.0

     add environment contribution to local potential
     Polarization accuracy = 4.2E-12, # of iterations =  40

     total cpu time spent up to now is     7010.3 secs

     total energy              =   -3432.52771876 Ry
     estimated scf accuracy    <       0.04116790 Ry
     electrostatic embedding   =      -0.03707283 Ry
     cavitation energy         =       0.02076544 Ry
     PV energy                 =      -0.08060435 Ry
     correction to one-el term =     193.27219324 Ry

     iteration #  8     ecut=    50.00 Ry     beta= 0.70
     Davidson diagonalization with overlap
     ethr =  1.13E-05,  avg # of iterations =  2.0

     add environment contribution to local potential
     Polarization accuracy = 4.2E-12, # of iterations =  49

     total cpu time spent up to now is     7724.2 secs

     total energy              =   -3432.52500722 Ry
     estimated scf accuracy    <       0.02931758 Ry
     electrostatic embedding   =      -0.04341569 Ry
     cavitation energy         =       0.02096230 Ry
     PV energy                 =      -0.08007881 Ry
     correction to one-el term =     191.38467578 Ry

     iteration #  9     ecut=    50.00 Ry     beta= 0.70
     Davidson diagonalization with overlap
     ethr =  8.05E-06,  avg # of iterations = 15.5

     negative rho (up, down):  4.212E-05 0.000E+00

     add environment contribution to local potential
     Polarization accuracy = 5.8E-12, # of iterations =  52

     total cpu time spent up to now is     8634.8 secs

     total energy              =   -3432.52764926 Ry
     estimated scf accuracy    <       0.04309509 Ry
     electrostatic embedding   =      -0.06313046 Ry
     cavitation energy         =       0.02137092 Ry
     PV energy                 =      -0.07902993 Ry
     correction to one-el term =     187.95135049 Ry

     iteration # 10     ecut=    50.00 Ry     beta= 0.70
     Davidson diagonalization with overlap
     ethr =  8.05E-06,  avg # of iterations =  3.0

     negative rho (up, down):  2.374E-07 0.000E+00

     add environment contribution to local potential
     Polarization accuracy = 3.1E-12, # of iterations =  51

     total cpu time spent up to now is     9058.0 secs

     total energy              =   -3432.52764534 Ry
     estimated scf accuracy    <       0.02464065 Ry
     electrostatic embedding   =      -0.07137488 Ry
     cavitation energy         =       0.02141170 Ry
     PV energy                 =      -0.07881412 Ry
     correction to one-el term =     187.30462001 Ry

     iteration # 11     ecut=    50.00 Ry     beta= 0.70
     Davidson diagonalization with overlap
     ethr =  6.77E-06,  avg # of iterations =  1.0

     negative rho (up, down):  1.189E-04 0.000E+00

     add environment contribution to local potential
     Polarization accuracy = 6.5E-12, # of iterations =  49

     total cpu time spent up to now is     9586.2 secs

     total energy              =   -3432.52824428 Ry
     estimated scf accuracy    <       0.01171323 Ry
     electrostatic embedding   =      -0.06952506 Ry
     cavitation energy         =       0.02123380 Ry
     PV energy                 =      -0.07898174 Ry
     correction to one-el term =     188.37656817 Ry

     iteration # 12     ecut=    50.00 Ry     beta= 0.70
     Davidson diagonalization with overlap
     ethr =  3.22E-06,  avg # of iterations =  3.0

     negative rho (up, down):  2.235E-06 0.000E+00

     add environment contribution to local potential
     Polarization accuracy = 6.1E-12, # of iterations =  46

     total cpu time spent up to now is    10212.0 secs

     total energy              =   -3432.52850798 Ry
     estimated scf accuracy    <       0.00663602 Ry
     electrostatic embedding   =      -0.07092294 Ry
     cavitation energy         =       0.02112400 Ry
     PV energy                 =      -0.07902779 Ry
     correction to one-el term =     189.08279297 Ry

     iteration # 13     ecut=    50.00 Ry     beta= 0.70
     Davidson diagonalization with overlap
     ethr =  1.82E-06,  avg # of iterations =  6.0

     negative rho (up, down):  4.077E-05 0.000E+00

     add environment contribution to local potential
     Polarization accuracy = 5.6E-12, # of iterations =  46

     total cpu time spent up to now is    10790.6 secs

     total energy              =   -3432.52918440 Ry
     estimated scf accuracy    <       0.00367527 Ry
     electrostatic embedding   =      -0.06753360 Ry
     cavitation energy         =       0.02097002 Ry
     PV energy                 =      -0.07920129 Ry
     correction to one-el term =     190.43822884 Ry

     iteration # 14     ecut=    50.00 Ry     beta= 0.70
     Davidson diagonalization with overlap
     ethr =  1.01E-06,  avg # of iterations =  6.0

     negative rho (up, down):  2.158E-04 0.000E+00

     add environment contribution to local potential
     Polarization accuracy = 2.9E-12, # of iterations =  45

     total cpu time spent up to now is    11316.6 secs

     total energy              =   -3432.52965926 Ry
     estimated scf accuracy    <       0.00121631 Ry
     electrostatic embedding   =      -0.06617063 Ry
     cavitation energy         =       0.02088035 Ry
     PV energy                 =      -0.07927269 Ry
     correction to one-el term =     191.46590544 Ry

     iteration # 15     ecut=    50.00 Ry     beta= 0.70
     Davidson diagonalization with overlap
     ethr =  3.34E-07,  avg # of iterations =  8.0

     negative rho (up, down):  1.520E-03 0.000E+00

     add environment contribution to local potential
     Polarization accuracy = 3.8E-12, # of iterations =  45

     total cpu time spent up to now is    11922.0 secs

     total energy              =   -3432.53020641 Ry
     estimated scf accuracy    <       0.00034111 Ry
     electrostatic embedding   =      -0.06160806 Ry
     cavitation energy         =       0.02078971 Ry
     PV energy                 =      -0.07938891 Ry
     correction to one-el term =     192.90645230 Ry

     iteration # 16     ecut=    50.00 Ry     beta= 0.70
     Davidson diagonalization with overlap
     ethr =  9.37E-08,  avg # of iterations =  7.0

     negative rho (up, down):  2.694E-04 0.000E+00

     add environment contribution to local potential
     Polarization accuracy = 8.1E-12, # of iterations =  45

     total cpu time spent up to now is    12149.3 secs

     total energy              =   -3432.53038248 Ry
     estimated scf accuracy    <       0.00019200 Ry
     electrostatic embedding   =      -0.05897546 Ry
     cavitation energy         =       0.02080728 Ry
     PV energy                 =      -0.07938210 Ry
     correction to one-el term =     193.41069296 Ry

     iteration # 17     ecut=    50.00 Ry     beta= 0.70
     Davidson diagonalization with overlap
     ethr =  5.27E-08,  avg # of iterations =  6.0

     negative rho (up, down):  2.421E-05 0.000E+00

     add environment contribution to local potential
     Polarization accuracy = 6.0E-12, # of iterations =  45

     total cpu time spent up to now is    12326.1 secs

     total energy              =   -3432.53047656 Ry
     estimated scf accuracy    <       0.00002713 Ry
     electrostatic embedding   =      -0.05776575 Ry
     cavitation energy         =       0.02084496 Ry
     PV energy                 =      -0.07935660 Ry
     correction to one-el term =     193.41236659 Ry

     iteration # 18     ecut=    50.00 Ry     beta= 0.70
     Davidson diagonalization with overlap
     ethr =  7.45E-09,  avg # of iterations =  3.0

     negative rho (up, down):  4.761E-04 0.000E+00

     add environment contribution to local potential
     Polarization accuracy = 5.3E-12, # of iterations =  46

     total cpu time spent up to now is    12457.9 secs

     total energy              =   -3432.53050973 Ry
     estimated scf accuracy    <       0.00001994 Ry
     electrostatic embedding   =      -0.05737450 Ry
     cavitation energy         =       0.02086006 Ry
     PV energy                 =      -0.07934276 Ry
     correction to one-el term =     193.41458718 Ry

     iteration # 19     ecut=    50.00 Ry     beta= 0.70
     Davidson diagonalization with overlap
     c_bands:  1 eigenvalues not converged
     ethr =  5.48E-09,  avg # of iterations = 12.5

     negative rho (up, down):  3.038E-04 0.000E+00

     add environment contribution to local potential
     Polarization accuracy = 6.7E-12, # of iterations =  45

     total cpu time spent up to now is    12640.4 secs

     total energy              =   -3432.53054069 Ry
     estimated scf accuracy    <       0.00000798 Ry
     electrostatic embedding   =      -0.05639977 Ry
     cavitation energy         =       0.02086716 Ry
     PV energy                 =      -0.07933349 Ry
     correction to one-el term =     193.59966568 Ry

     iteration # 20     ecut=    50.00 Ry     beta= 0.70
     Davidson diagonalization with overlap
     ethr =  2.19E-09,  avg # of iterations =  5.5

     negative rho (up, down):  3.831E-04 0.000E+00

     add environment contribution to local potential
     Polarization accuracy = 6.2E-12, # of iterations =  45

     total cpu time spent up to now is    12812.5 secs

     total energy              =   -3432.53055149 Ry
     estimated scf accuracy    <       0.00000533 Ry
     electrostatic embedding   =      -0.05591205 Ry
     cavitation energy         =       0.02087449 Ry
     PV energy                 =      -0.07932818 Ry
     correction to one-el term =     193.62753236 Ry

     iteration # 21     ecut=    50.00 Ry     beta= 0.70
     Davidson diagonalization with overlap
     ethr =  1.46E-09,  avg # of iterations =  3.0

     negative rho (up, down):  3.582E-04 0.000E+00

     add environment contribution to local potential
     Polarization accuracy = 6.3E-12, # of iterations =  45

     total cpu time spent up to now is    12988.0 secs

     total energy              =   -3432.53055619 Ry
     estimated scf accuracy    <       0.00000141 Ry
     electrostatic embedding   =      -0.05570402 Ry
     cavitation energy         =       0.02087409 Ry
     PV energy                 =      -0.07932617 Ry
     correction to one-el term =     193.65955146 Ry

     iteration # 22     ecut=    50.00 Ry     beta= 0.70
     Davidson diagonalization with overlap
     ethr =  3.86E-10,  avg # of iterations =  3.0

     negative rho (up, down):  3.037E-04 0.000E+00

     add environment contribution to local potential
     Polarization accuracy = 6.3E-12, # of iterations =  45

     total cpu time spent up to now is    13183.4 secs

     total energy              =   -3432.53055880 Ry
     estimated scf accuracy    <       0.00000093 Ry
     electrostatic embedding   =      -0.05556028 Ry
     cavitation energy         =       0.02087337 Ry
     PV energy                 =      -0.07932630 Ry
     correction to one-el term =     193.66689601 Ry

     iteration # 23     ecut=    50.00 Ry     beta= 0.70
     Davidson diagonalization with overlap
     ethr =  2.54E-10,  avg # of iterations =  3.0

     negative rho (up, down):  1.931E-04 0.000E+00

     add environment contribution to local potential
     Polarization accuracy = 6.1E-12, # of iterations =  45

     total cpu time spent up to now is    13359.2 secs

     total energy              =   -3432.53056090 Ry
     estimated scf accuracy    <       0.00000045 Ry
     electrostatic embedding   =      -0.05545103 Ry
     cavitation energy         =       0.02087317 Ry
     PV energy                 =      -0.07932691 Ry
     correction to one-el term =     193.66715267 Ry

     iteration # 24     ecut=    50.00 Ry     beta= 0.70
     Davidson diagonalization with overlap
     ethr =  1.25E-10,  avg # of iterations =  2.0

     negative rho (up, down):  1.601E-04 0.000E+00

     add environment contribution to local potential
     Polarization accuracy = 5.8E-12, # of iterations =  46

     total cpu time spent up to now is    13513.0 secs

     total energy              =   -3432.53056208 Ry
     estimated scf accuracy    <       0.00000021 Ry
     electrostatic embedding   =      -0.05540260 Ry
     cavitation energy         =       0.02087370 Ry
     PV energy                 =      -0.07932753 Ry
     correction to one-el term =     193.65755747 Ry

     iteration # 25     ecut=    50.00 Ry     beta= 0.70
     Davidson diagonalization with overlap
     ethr =  5.88E-11,  avg # of iterations =  2.0

     negative rho (up, down):  1.485E-04 0.000E+00

     add environment contribution to local potential
     Polarization accuracy = 5.3E-12, # of iterations =  46

     total cpu time spent up to now is    13648.0 secs

     total energy              =   -3432.53056252 Ry
     estimated scf accuracy    <       0.00000011 Ry
     electrostatic embedding   =      -0.05538618 Ry
     cavitation energy         =       0.02087420 Ry
     PV energy                 =      -0.07932782 Ry
     correction to one-el term =     193.65558840 Ry

     iteration # 26     ecut=    50.00 Ry     beta= 0.70
     Davidson diagonalization with overlap
     ethr =  3.07E-11,  avg # of iterations =  2.0

     negative rho (up, down):  1.481E-04 0.000E+00

     add environment contribution to local potential
     Polarization accuracy = 5.7E-12, # of iterations =  46

     total cpu time spent up to now is    13773.2 secs

     total energy              =   -3432.53056264 Ry
     estimated scf accuracy    <       0.00000011 Ry
     electrostatic embedding   =      -0.05539146 Ry
     cavitation energy         =       0.02087424 Ry
     PV energy                 =      -0.07932822 Ry
     correction to one-el term =     193.65434523 Ry

     iteration # 27     ecut=    50.00 Ry     beta= 0.70
     Davidson diagonalization with overlap
     ethr =  2.94E-11,  avg # of iterations =  1.5

     negative rho (up, down):  1.445E-04 0.000E+00

     add environment contribution to local potential
     Polarization accuracy = 6.3E-12, # of iterations =  45

     total cpu time spent up to now is    13947.6 secs

     total energy              =   -3432.53056279 Ry
     estimated scf accuracy    <       0.00000007 Ry
     electrostatic embedding   =      -0.05539004 Ry
     cavitation energy         =       0.02087429 Ry
     PV energy                 =      -0.07932832 Ry
     correction to one-el term =     193.65493407 Ry

     iteration # 28     ecut=    50.00 Ry     beta= 0.70
     Davidson diagonalization with overlap
     ethr =  2.03E-11,  avg # of iterations =  2.0

     negative rho (up, down):  1.512E-04 0.000E+00

     add environment contribution to local potential
     Polarization accuracy = 5.2E-12, # of iterations =  46

     total cpu time spent up to now is    14107.1 secs

     total energy              =   -3432.53056322 Ry
     estimated scf accuracy    <       0.00000007 Ry
     electrostatic embedding   =      -0.05538205 Ry
     cavitation energy         =       0.02087434 Ry
     PV energy                 =      -0.07932852 Ry
     correction to one-el term =     193.65585156 Ry

     iteration # 29     ecut=    50.00 Ry     beta= 0.70
     Davidson diagonalization with overlap
     ethr =  1.79E-11,  avg # of iterations =  1.0

     negative rho (up, down):  1.621E-04 0.000E+00

     add environment contribution to local potential
     Polarization accuracy = 5.3E-12, # of iterations =  45

     total cpu time spent up to now is    14265.1 secs

     total energy              =   -3432.53056390 Ry
     estimated scf accuracy    <       0.00000006 Ry
     electrostatic embedding   =      -0.05538246 Ry
     cavitation energy         =       0.02087425 Ry
     PV energy                 =      -0.07932873 Ry
     correction to one-el term =     193.65783443 Ry

     iteration # 30     ecut=    50.00 Ry     beta= 0.70
     Davidson diagonalization with overlap
     ethr =  1.67E-11,  avg # of iterations =  1.0

     negative rho (up, down):  1.718E-04 0.000E+00

     add environment contribution to local potential
     Polarization accuracy = 5.0E-12, # of iterations =  45

     total cpu time spent up to now is    14442.6 secs

     total energy              =   -3432.53056489 Ry
     estimated scf accuracy    <       0.00000006 Ry
     electrostatic embedding   =      -0.05538201 Ry
     cavitation energy         =       0.02087408 Ry
     PV energy                 =      -0.07932882 Ry
     correction to one-el term =     193.65973670 Ry

     iteration # 31     ecut=    50.00 Ry     beta= 0.70
     Davidson diagonalization with overlap
     ethr =  1.51E-11,  avg # of iterations =  2.0

     negative rho (up, down):  1.814E-04 0.000E+00

     add environment contribution to local potential
     Polarization accuracy = 4.4E-12, # of iterations =  46

     total cpu time spent up to now is    14617.6 secs

     total energy              =   -3432.53056797 Ry
     estimated scf accuracy    <       0.00000005 Ry
     electrostatic embedding   =      -0.05537769 Ry
     cavitation energy         =       0.02087388 Ry
     PV energy                 =      -0.07932903 Ry
     correction to one-el term =     193.66177529 Ry

     iteration # 32     ecut=    50.00 Ry     beta= 0.70
     Davidson diagonalization with overlap
     ethr =  1.33E-11,  avg # of iterations =  2.0

     negative rho (up, down):  1.748E-04 0.000E+00

     add environment contribution to local potential
     Polarization accuracy = 5.0E-12, # of iterations =  45

     total cpu time spent up to now is    14790.8 secs

     total energy              =   -3432.53057240 Ry
     estimated scf accuracy    <       0.00000004 Ry
     electrostatic embedding   =      -0.05538073 Ry
     cavitation energy         =       0.02087371 Ry
     PV energy                 =      -0.07932898 Ry
     correction to one-el term =     193.66234857 Ry

     iteration # 33     ecut=    50.00 Ry     beta= 0.70
     Davidson diagonalization with overlap
     ethr =  1.21E-11,  avg # of iterations =  2.5

     negative rho (up, down):  1.653E-04 0.000E+00

     add environment contribution to local potential
     Polarization accuracy = 6.2E-12, # of iterations =  45

     total cpu time spent up to now is    14966.3 secs

     total energy              =   -3432.53057704 Ry
     estimated scf accuracy    <       0.00000003 Ry
     electrostatic embedding   =      -0.05538655 Ry
     cavitation energy         =       0.02087375 Ry
     PV energy                 =      -0.07932886 Ry
     correction to one-el term =     193.66016809 Ry

     iteration # 34     ecut=    50.00 Ry     beta= 0.70
     Davidson diagonalization with overlap
     ethr =  7.57E-12,  avg # of iterations =  2.0

     negative rho (up, down):  1.549E-04 0.000E+00

     add environment contribution to local potential
     Polarization accuracy = 4.0E-12, # of iterations =  45

     total cpu time spent up to now is    15150.4 secs

     total energy              =   -3432.53057909 Ry
     estimated scf accuracy    <       0.00000002 Ry
     electrostatic embedding   =      -0.05538752 Ry
     cavitation energy         =       0.02087388 Ry
     PV energy                 =      -0.07932887 Ry
     correction to one-el term =     193.65918009 Ry

     iteration # 35     ecut=    50.00 Ry     beta= 0.70
     Davidson diagonalization with overlap
     ethr =  6.76E-12,  avg # of iterations = 11.0

     negative rho (up, down):  1.519E-04 0.000E+00

     add environment contribution to local potential
     Polarization accuracy = 5.3E-12, # of iterations =  45

     total cpu time spent up to now is    15317.8 secs

     total energy              =   -3432.53058561 Ry
     estimated scf accuracy    <       0.00000001 Ry
     electrostatic embedding   =      -0.05539856 Ry
     cavitation energy         =       0.02087402 Ry
     PV energy                 =      -0.07932852 Ry
     correction to one-el term =     193.65568032 Ry

     iteration # 36     ecut=    50.00 Ry     beta= 0.70
     Davidson diagonalization with overlap
     ethr =  2.95E-12,  avg # of iterations =  3.5

     negative rho (up, down):  1.490E-04 0.000E+00

     add environment contribution to local potential
     Polarization accuracy = 8.7E-12, # of iterations =  44

     total cpu time spent up to now is    15490.1 secs

     total energy              =   -3432.53058906 Ry
     estimated scf accuracy    <          5.8E-09 Ry
     electrostatic embedding   =      -0.05540075 Ry
     cavitation energy         =       0.02087407 Ry
     PV energy                 =      -0.07932852 Ry
     correction to one-el term =     193.65528969 Ry

     iteration # 37     ecut=    50.00 Ry     beta= 0.70
     Davidson diagonalization with overlap
     ethr =  1.60E-12,  avg # of iterations =  2.0

     negative rho (up, down):  1.475E-04 0.000E+00

     add environment contribution to local potential
     Polarization accuracy = 3.8E-12, # of iterations =  45

     total cpu time spent up to now is    15659.9 secs

     total energy              =   -3432.53058989 Ry
     estimated scf accuracy    <          1.3E-09 Ry
     electrostatic embedding   =      -0.05540231 Ry
     cavitation energy         =       0.02087414 Ry
     PV energy                 =      -0.07932852 Ry
     correction to one-el term =     193.65498630 Ry

     iteration # 38     ecut=    50.00 Ry     beta= 0.70
     Davidson diagonalization with overlap
     ethr =  3.60E-13,  avg # of iterations =  5.0

     negative rho (up, down):  1.538E-04 0.000E+00

     the potential shift due to the Gaussian-smeared nuclei is    -1.3393 ev

     total cpu time spent up to now is    15807.4 secs

     End of self-consistent calculation

          k = 0.2500 0.2763 0.0000 ( 34692 PWs)   bands (ev):

   -78.5054 -78.4923 -78.1031 -78.0906 -78.0082 -77.9956 -77.7379 -77.7251
   -77.6604 -77.6147 -77.5890 -77.4468 -49.0311 -49.0180 -48.5142 -48.5016
   -48.4054 -48.3923 -48.3428 -48.3301 -48.1600 -48.1272 -48.1141 -48.0510
   -48.0184 -48.0059 -48.0037 -47.9910 -47.9355 -47.9230 -47.9192 -47.9067
   -47.8357 -47.8246 -47.8142 -47.6951 -47.6824 -47.6634 -47.5844 -47.5416
   -47.5313 -47.5186 -47.4883 -47.4360 -47.4229 -47.4175 -47.4050 -47.2651
   -24.3441 -24.2366 -24.0840 -23.8649 -23.8372 -23.7597 -23.7253 -23.6939
   -23.2975 -23.2115 -23.0894 -23.0802 -23.0620 -22.9980 -22.9890 -22.9028
   -22.8977 -22.8445 -22.8349 -22.7586 -22.7405 -22.7017 -22.4969 -22.4013
   -22.1044 -22.0874 -22.0332 -21.9718 -12.5380 -12.5205 -12.3945 -12.2595
   -12.0887 -11.9891 -11.9200 -11.8109 -11.6913 -11.5694 -11.5475 -11.4457
   -11.4144 -11.4056 -11.3485 -11.2058 -11.1604 -11.1014 -11.0802 -10.9792
   -10.8902 -10.8443 -10.8059 -10.6150 -10.5085 -10.4630 -10.2425 -10.1887
   -10.0614  -9.9916  -9.9331  -9.9285  -9.8006  -9.6706  -9.6340  -9.5596
    -9.5480  -9.4237  -9.4202  -9.3292  -9.2840  -9.2390  -9.1499  -8.9596
    -8.9564  -8.8696  -8.7368  -8.6614  -8.5544  -8.4911  -8.4693  -8.4242
    -8.4198  -8.3062  -8.3040  -8.1912  -8.1696  -8.1210  -8.0398  -8.0096
    -7.9034  -7.8294  -7.7817  -7.6804  -7.6469  -7.5398  -7.4037  -7.3864
    -7.2447  -7.1882  -7.1360  -7.0942  -6.9604  -6.9344  -6.9008  -6.7505
    -6.7421  -6.7148  -6.6211  -6.5614  -6.4582  -6.3570  -6.3302  -6.2643
    -5.4119  -5.3546  -5.3144  -5.2304  -5.1154  -5.0625  -5.0316  -4.9780
    -4.9677  -4.9473  -4.9052  -4.8845  -4.7905  -4.7352  -4.7040  -4.6189
    -4.5648  -4.5008  -4.4843  -4.3606  -4.3495  -4.2027  -4.1288  -4.1076
    -3.9439  -3.9084  -3.8536  -3.7374  -3.5005  -3.4372  -3.3544  -3.2830
    -3.2105  -3.1914  -2.9782  -2.8383  -2.5136  -2.2451  -2.2175  -2.1505
    -1.9687  -1.8430  -1.1925  -0.9653  -0.9142  -0.6544  -0.4504  -0.4259
    -0.3961  -0.3195  -0.1893  -0.1118   0.1080   0.3294   0.3721   0.7232
     0.8228   0.8819

          k =-0.2500 0.2763 0.0000 ( 34692 PWs)   bands (ev):

   -78.5054 -78.4923 -78.1031 -78.0906 -78.0082 -77.9956 -77.7379 -77.7251
   -77.6604 -77.6147 -77.5890 -77.4468 -49.0311 -49.0180 -48.5142 -48.5016
   -48.4054 -48.3923 -48.3428 -48.3301 -48.1600 -48.1271 -48.1141 -48.0510
   -48.0185 -48.0060 -48.0037 -47.9910 -47.9355 -47.9230 -47.9192 -47.9067
   -47.8357 -47.8246 -47.8142 -47.6951 -47.6824 -47.6634 -47.5844 -47.5416
   -47.5313 -47.5186 -47.4883 -47.4360 -47.4228 -47.4175 -47.4051 -47.2651
   -24.3441 -24.2367 -24.0838 -23.8639 -23.8362 -23.7611 -23.7262 -23.6942
   -23.2972 -23.2103 -23.0901 -23.0806 -23.0617 -22.9995 -22.9905 -22.9023
   -22.8956 -22.8436 -22.8342 -22.7589 -22.7402 -22.7029 -22.4969 -22.4013
   -22.1052 -22.0866 -22.0337 -21.9715 -12.5413 -12.5229 -12.3941 -12.2554
   -12.0901 -11.9858 -11.9092 -11.8150 -11.6902 -11.5799 -11.5495 -11.4493
   -11.4167 -11.4046 -11.3426 -11.2103 -11.1630 -11.0923 -11.0552 -11.0015
   -10.8851 -10.8278 -10.8194 -10.6273 -10.5024 -10.4664 -10.2349 -10.1979
   -10.0507 -10.0057  -9.9392  -9.9320  -9.8018  -9.6427  -9.6369  -9.5655
    -9.5614  -9.4350  -9.4134  -9.3193  -9.2853  -9.2379  -9.1482  -8.9562
    -8.9527  -8.8717  -8.7351  -8.6585  -8.5490  -8.4970  -8.4681  -8.4308
    -8.4125  -8.3260  -8.2994  -8.1799  -8.1547  -8.1344  -8.0521  -7.9988
    -7.8973  -7.8382  -7.7827  -7.6898  -7.6451  -7.5417  -7.3864  -7.3674
    -7.2252  -7.2205  -7.1201  -7.0754  -7.0232  -6.9578  -6.8956  -6.7640
    -6.7186  -6.6994  -6.6359  -6.5346  -6.4626  -6.3546  -6.3321  -6.2637
    -5.4185  -5.3560  -5.3092  -5.2229  -5.1210  -5.0587  -5.0299  -4.9817
    -4.9674  -4.9468  -4.9019  -4.8847  -4.7927  -4.7355  -4.7024  -4.6194
    -4.5737  -4.5099  -4.4755  -4.3630  -4.3438  -4.2062  -4.1268  -4.1111
    -3.9422  -3.9025  -3.8569  -3.7369  -3.4986  -3.4370  -3.3574  -3.2826
    -3.2095  -3.1912  -2.9783  -2.8377  -2.5138  -2.2456  -2.2176  -2.1500
    -1.9689  -1.8428  -1.1921  -0.9652  -0.9137  -0.6547  -0.4496  -0.4261
    -0.3964  -0.3205  -0.1903  -0.1121   0.1106   0.3290   0.3704   0.7239
     0.8220   0.8828

     the Fermi energy is    -4.2030 ev

!    total energy              =   -3432.53059043 Ry
     estimated scf accuracy    <          7.7E-10 Ry
     smearing contrib. (-TS)   =       0.03951989 Ry
     internal energy E=F+TS    =   -3432.57011032 Ry

     The total energy is F=E-TS. E is the sum of the following terms:
     one-electron contribution =  -25723.74495634 Ry
     hartree contribution      =   12841.11589976 Ry
     xc contribution           =    -446.55986831 Ry
     ewald contribution        =    9969.63482818 Ry
     one-center paw contrib.   =    -266.55698496 Ry
     electrostatic embedding   =      -0.05540211 Ry
     cavitation energy         =       0.02087418 Ry
     PV energy                 =      -0.07932852 Ry
     correction to one-el term =     193.65482781 Ry

     WARNING: you are using the parabolic pbc correction;
              the potential shift above must be added to 
              band and Fermi energies.

     convergence has been achieved in  38 iterations

     negative rho (up, down):  1.538E-04 0.000E+00

     Forces acting on atoms (cartesian axes, Ry/au):

     atom    1 type  1   force =     0.03501265    0.00064243   -0.02016403
     atom    2 type  1   force =    -0.00175268   -0.00044172   -0.01512617
     atom    3 type  1   force =     0.00135490    0.00023463   -0.01907484
     atom    4 type  1   force =    -0.00007975   -0.01562300    0.04059222
     atom    5 type  2   force =    -0.02657573   -0.00206657   -0.00428827
     atom    6 type  2   force =     0.02508702   -0.00337799    0.00158111
     atom    7 type  1   force =     0.00308419    0.07552674    0.00367715
     atom    8 type  1   force =    -0.00104637    0.05765103    0.00168346
     atom    9 type  2   force =    -0.00101436   -0.00191605    0.00469034
     atom   10 type  2   force =     0.00059376   -0.00048266    0.01547484
     atom   11 type  1   force =     0.00232349   -0.07119599    0.00353893
     atom   12 type  1   force =    -0.00031430   -0.05221852    0.00185008
     atom   13 type  1   force =    -0.00169688    0.00048027    0.00172113
     atom   14 type  1   force =     0.00143095    0.00045596   -0.00817158
     atom   15 type  1   force =    -0.00215117   -0.00025292   -0.00449741
     atom   16 type  1   force =     0.00145225   -0.00010050    0.01420091
     atom   17 type  2   force =     0.02083793   -0.00169287    0.00000000
     atom   18 type  2   force =    -0.02102955    0.00055175    0.00000000
     atom   19 type  1   force =    -0.00802410   -0.04513448    0.00000000
     atom   20 type  1   force =     0.00643543   -0.10494285    0.00000000
     atom   21 type  2   force =    -0.01521172    0.00234378    0.00000000
     atom   22 type  2   force =     0.01969218    0.00101384    0.00000000
     atom   23 type  1   force =    -0.00917323    0.04317840    0.00000000
     atom   24 type  1   force =     0.00784403    0.10415577    0.00000000
     atom   25 type  1   force =    -0.00215117   -0.00025292    0.00449741
     atom   26 type  1   force =     0.00145225   -0.00010050   -0.01420091
     atom   27 type  1   force =    -0.00169688    0.00048027   -0.00172113
     atom   28 type  1   force =     0.00143095    0.00045596    0.00817158
     atom   29 type  2   force =    -0.02657573   -0.00206657    0.00428827
     atom   30 type  2   force =     0.02508702   -0.00337799   -0.00158111
     atom   31 type  1   force =     0.00308419    0.07552674   -0.00367715
     atom   32 type  1   force =    -0.00104637    0.05765103   -0.00168346
     atom   33 type  2   force =    -0.00101436   -0.00191605   -0.00469034
     atom   34 type  2   force =     0.00059376   -0.00048266   -0.01547484
     atom   35 type  1   force =     0.00232349   -0.07119599   -0.00353893
     atom   36 type  1   force =    -0.00031430   -0.05221852   -0.00185008
     atom   37 type  1   force =     0.00135490    0.00023463    0.01907484
     atom   38 type  1   force =    -0.00007975   -0.01562300   -0.04059222
     atom   39 type  1   force =     0.03501265    0.00064243    0.02016403
     atom   40 type  1   force =    -0.00175268   -0.00044172    0.01512617
     atom   41 type  3   force =    -0.03623670   -0.00069733    0.01175529
     atom   42 type  3   force =    -0.03623670   -0.00069733   -0.01175529
     atom   43 type  3   force =    -0.00015674    0.01364550   -0.03083443
     atom   44 type  3   force =    -0.00015674    0.01364550    0.03083443
     The non-local contrib.  to forces
     atom    1 type  1   force =     1.75672141    0.02662929    0.45563987
     atom    2 type  1   force =     0.05355424   -0.02140668    1.24767288
     atom    3 type  1   force =     0.01258156    0.02199845    1.08446466
     atom    4 type  1   force =    -0.01529958    0.89116362   -0.73600815
     atom    5 type  2   force =    -0.02888734    0.00140272   -0.00443643
     atom    6 type  2   force =     0.02913122    0.00165406   -0.00871654
     atom    7 type  1   force =    -0.01638885   -0.07649603   -0.07530042
     atom    8 type  1   force =    -0.10473262   -0.04699687   -0.01380226
     atom    9 type  2   force =     0.00964049   -0.00065955    0.02791444
     atom   10 type  2   force =    -0.01278731   -0.00087144   -0.06256088
     atom   11 type  1   force =    -0.01597494    0.06373967   -0.07707398
     atom   12 type  1   force =    -0.10458018    0.03009451   -0.02117316
     atom   13 type  1   force =    -0.00669471    0.02320957   -0.02509868
     atom   14 type  1   force =     0.02983353   -0.00310088    0.09362255
     atom   15 type  1   force =    -0.01086772    0.00085142   -0.04728653
     atom   16 type  1   force =    -0.00541755   -0.00238763    0.19810088
     atom   17 type  2   force =    -0.00965932   -0.00031872    0.00000000
     atom   18 type  2   force =     0.00559651    0.00081567    0.00000000
     atom   19 type  1   force =     0.03109066    0.10779504    0.00000000
     atom   20 type  1   force =    -0.01904552    0.01840911    0.00000000
     atom   21 type  2   force =     0.01224197    0.00018406    0.00000000
     atom   22 type  2   force =    -0.01725238    0.00001824    0.00000000
     atom   23 type  1   force =     0.04098335   -0.10245870    0.00000000
     atom   24 type  1   force =    -0.02852020   -0.01591302    0.00000000
     atom   25 type  1   force =    -0.01086772    0.00085142    0.04728653
     atom   26 type  1   force =    -0.00541755   -0.00238763   -0.19810088
     atom   27 type  1   force =    -0.00669471    0.02320957    0.02509868
     atom   28 type  1   force =     0.02983353   -0.00310088   -0.09362255
     atom   29 type  2   force =    -0.02888734    0.00140272    0.00443643
     atom   30 type  2   force =     0.02913122    0.00165406    0.00871654
     atom   31 type  1   force =    -0.01638885   -0.07649603    0.07530042
     atom   32 type  1   force =    -0.10473262   -0.04699687    0.01380226
     atom   33 type  2   force =     0.00964049   -0.00065955   -0.02791444
     atom   34 type  2   force =    -0.01278731   -0.00087144    0.06256088
     atom   35 type  1   force =    -0.01597494    0.06373967    0.07707398
     atom   36 type  1   force =    -0.10458018    0.03009451    0.02117316
     atom   37 type  1   force =     0.01258156    0.02199845   -1.08446466
     atom   38 type  1   force =    -0.01529958    0.89116362    0.73600815
     atom   39 type  1   force =     1.75672141    0.02662929   -0.45563987
     atom   40 type  1   force =     0.05355424   -0.02140668   -1.24767288
     atom   41 type  3   force =    -0.08939029   -0.00173765    0.03620859
     atom   42 type  3   force =    -0.08939029   -0.00173765   -0.03620859
     atom   43 type  3   force =     0.00073290   -0.04791260    0.10873869
     atom   44 type  3   force =     0.00073290   -0.04791260   -0.10873869
     The ionic contribution  to forces
     atom    1 type  1   force =    -3.29050700   -0.04528656  -97.56214741
     atom    2 type  1   force =    -0.13143401    0.11476339 -101.88894716
     atom    3 type  1   force =    -0.19996969   -0.03615467  -95.13088500
     atom    4 type  1   force =     0.21177139   -1.44955277  -91.50440391
     atom    5 type  2   force =     3.10527458    0.04479015 -173.73692882
     atom    6 type  2   force =    -3.00291444    0.00341966 -175.20869524
     atom    7 type  1   force =     0.95031068    1.10692944  -62.81240715
     atom    8 type  1   force =    -0.19924224    0.63364672  -64.85288256
     atom    9 type  2   force =    -1.06513098   -0.09316522 -170.09634142
     atom   10 type  2   force =     0.68248052    0.03422256 -175.57839679
     atom   11 type  1   force =     0.95601429   -1.03788983  -62.63321322
     atom   12 type  1   force =    -0.20302535   -0.52443919  -64.55209371
     atom   13 type  1   force =    -0.04140769   -0.02544974  -37.89639701
     atom   14 type  1   force =    -0.14441714    0.02596145  -39.44816907
     atom   15 type  1   force =    -0.13078674   -0.01051607  -24.98202452
     atom   16 type  1   force =     0.18561616   -0.03496370  -27.69624292
     atom   17 type  2   force =     0.37466812   -0.05228958   -0.00044940
     atom   18 type  2   force =    -0.34673787    0.03320593   -0.00044895
     atom   19 type  1   force =    -0.17338788   -0.71891351   -0.00008119
     atom   20 type  1   force =     0.06656373   -1.22863474   -0.00007861
     atom   21 type  2   force =     0.80235347    0.04270672   -0.00025622
     atom   22 type  2   force =    -1.10621479    0.00561568   -0.00024423
     atom   23 type  1   force =    -0.27228120    0.66732784   -0.00008118
     atom   24 type  1   force =     0.17594228    1.21916532   -0.00007861
     atom   25 type  1   force =    -0.13078621   -0.01051552   24.98179897
     atom   26 type  1   force =     0.18562522   -0.03496327   27.69609347
     atom   27 type  1   force =    -0.04140447   -0.02545127   37.89671530
     atom   28 type  1   force =    -0.14441867    0.02596108   39.44847225
     atom   29 type  2   force =     3.10522044    0.04478304  173.73717151
     atom   30 type  2   force =    -3.00286203    0.00341228  175.20893431
     atom   31 type  1   force =     0.95030820    1.10689688   62.81246910
     atom   32 type  1   force =    -0.19923851    0.63361879   64.85294787
     atom   33 type  2   force =    -1.06514403   -0.09316359  170.09646072
     atom   34 type  2   force =     0.68248553    0.03422859  175.57854622
     atom   35 type  1   force =     0.95601331   -1.03785546   62.63327623
     atom   36 type  1   force =    -0.20302305   -0.52440941   64.55216040
     atom   37 type  1   force =    -0.19996898   -0.03615274   95.13104135
     atom   38 type  1   force =     0.21177528   -1.44974071   91.50423655
     atom   39 type  1   force =    -3.29057759   -0.04528828   97.56225225
     atom   40 type  1   force =    -0.13143067    0.11476364  101.88901201
     atom   41 type  3   force =     2.53602163    0.06276950  -16.53624070
     atom   42 type  3   force =     2.53609313    0.06277070   16.53625114
     atom   43 type  3   force =     0.02088820    1.24682281  -18.36899645
     atom   44 type  3   force =     0.02088508    1.24701366   18.36929181
     The local contribution  to forces
     atom    1 type  1   force =     1.49683644    0.02979528   97.04657188
     atom    2 type  1   force =     0.13453237   -0.04448290  100.61157859
     atom    3 type  1   force =     0.17076891    0.00566735   93.98787132
     atom    4 type  1   force =    -0.18042469    0.50060481   92.37614818
     atom    5 type  2   force =    -3.15509976   -0.06642151  173.77205943
     atom    6 type  2   force =     3.05240635   -0.02811825  175.22115868
     atom    7 type  1   force =    -0.94601073   -0.94709681   62.90326916
     atom    8 type  1   force =     0.31844839   -0.51615487   64.85954081
     atom    9 type  2   force =     1.02177447    0.10181142  170.02751707
     atom   10 type  2   force =    -0.63383389   -0.00705772  175.65603331
     atom   11 type  1   force =    -0.94855658    0.89974603   62.71475290
     atom   12 type  1   force =     0.31794858    0.43478817   64.55394630
     atom   13 type  1   force =     0.04368216    0.00161294   37.91825860
     atom   14 type  1   force =     0.11905037   -0.02482780   39.35395542
     atom   15 type  1   force =     0.13753727    0.01013864   25.02117026
     atom   16 type  1   force =    -0.17691016    0.03839359   27.51533713
     atom   17 type  2   force =    -0.34645514    0.04982818   -0.00582280
     atom   18 type  2   force =     0.32254560   -0.03489039   -0.00586384
     atom   19 type  1   force =     0.13296223    0.56626912   -0.00246549
     atom   20 type  1   force =    -0.03963629    1.10420039   -0.00248961
     atom   21 type  2   force =    -0.83338778   -0.03930464   -0.00606759
     atom   22 type  2   force =     1.14693953   -0.00335309   -0.00611803
     atom   23 type  1   force =     0.22100785   -0.52227742   -0.00246392
     atom   24 type  1   force =    -0.13831480   -1.09829527   -0.00248855
     atom   25 type  1   force =     0.13754132    0.01014014  -25.02294215
     atom   26 type  1   force =    -0.17689536    0.03839523  -27.51709634
     atom   27 type  1   force =     0.04368363    0.00161178  -37.92001188
     atom   28 type  1   force =     0.11905713   -0.02482656  -39.35572368
     atom   29 type  2   force =    -3.15510421   -0.06641921 -173.77822006
     atom   30 type  2   force =     3.05241438   -0.02811438 -175.22730281
     atom   31 type  1   force =    -0.94599135   -0.94708919  -62.90573974
     atom   32 type  1   force =     0.31842583   -0.51614725  -64.86202614
     atom   33 type  2   force =     1.02178258    0.10181184 -170.03336326
     atom   34 type  2   force =    -0.63387672   -0.00705961 -175.66174853
     atom   35 type  1   force =    -0.94853776    0.89973953  -62.71722321
     atom   36 type  1   force =     0.31792659    0.43478147  -64.55643071
     atom   37 type  1   force =     0.17076772    0.00565890  -93.99179066
     atom   38 type  1   force =    -0.18042734    0.50068432  -92.37985876
     atom   39 type  1   force =     1.49686576    0.02979604  -97.04810757
     atom   40 type  1   force =     0.13447254   -0.04448519 -100.61297143
     atom   41 type  3   force =    -2.50109001   -0.05905671   16.52219072
     atom   42 type  3   force =    -2.50109001   -0.05905671  -16.52219072
     atom   43 type  3   force =    -0.01801872   -1.19942925   18.28157235
     atom   44 type  3   force =    -0.01801872   -1.19942925  -18.28157235
     The core correction contribution to forces
     atom    1 type  1   force =    -0.01815358   -0.00026843   -0.00452323
     atom    2 type  1   force =    -0.00027364    0.00021425   -0.01031031
     atom    3 type  1   force =    -0.00015406   -0.00025505   -0.01104883
     atom    4 type  1   force =     0.00015493   -0.00892177    0.00635964
     atom    5 type  2   force =     0.00000000    0.00000000    0.00000000
     atom    6 type  2   force =     0.00000000    0.00000000    0.00000000
     atom    7 type  1   force =    -0.00009078   -0.00074749    0.00068307
     atom    8 type  1   force =     0.00127221   -0.00069742    0.00014212
     atom    9 type  2   force =     0.00000000    0.00000000    0.00000000
     atom   10 type  2   force =     0.00000000    0.00000000    0.00000000
     atom   11 type  1   force =    -0.00009672    0.00086007    0.00068178
     atom   12 type  1   force =     0.00126973    0.00083780    0.00019780
     atom   13 type  1   force =     0.00006343   -0.00029201    0.00044143
     atom   14 type  1   force =    -0.00028965    0.00004103   -0.00075462
     atom   15 type  1   force =     0.00018503   -0.00001029    0.00008329
     atom   16 type  1   force =     0.00003437    0.00004008   -0.00296787
     atom   17 type  2   force =     0.00000000    0.00000000    0.00000000
     atom   18 type  2   force =     0.00000000    0.00000000    0.00000000
     atom   19 type  1   force =    -0.00023751   -0.00002581   -0.00000214
     atom   20 type  1   force =     0.00012274    0.00147138   -0.00000226
     atom   21 type  2   force =     0.00000000    0.00000000    0.00000000
     atom   22 type  2   force =     0.00000000    0.00000000    0.00000000
     atom   23 type  1   force =    -0.00032884   -0.00001045   -0.00000213
     atom   24 type  1   force =     0.00020261   -0.00149577   -0.00000225
     atom   25 type  1   force =     0.00018497   -0.00001029   -0.00008540
     atom   26 type  1   force =     0.00003446    0.00004010    0.00296576
     atom   27 type  1   force =     0.00006342   -0.00029204   -0.00044371
     atom   28 type  1   force =    -0.00028965    0.00004105    0.00075240
     atom   29 type  2   force =     0.00000000    0.00000000    0.00000000
     atom   30 type  2   force =     0.00000000    0.00000000    0.00000000
     atom   31 type  1   force =    -0.00009082   -0.00074759   -0.00068501
     atom   32 type  1   force =     0.00127223   -0.00069740   -0.00014405
     atom   33 type  2   force =     0.00000000    0.00000000    0.00000000
     atom   34 type  2   force =     0.00000000    0.00000000    0.00000000
     atom   35 type  1   force =    -0.00009676    0.00086020   -0.00068372
     atom   36 type  1   force =     0.00126974    0.00083780   -0.00019972
     atom   37 type  1   force =    -0.00015398   -0.00025520    0.01104449
     atom   38 type  1   force =     0.00015491   -0.00892310   -0.00636482
     atom   39 type  1   force =    -0.01815445   -0.00026845    0.00452106
     atom   40 type  1   force =    -0.00027397    0.00021421    0.01030858
     atom   41 type  3   force =     0.00000000    0.00000000    0.00000000
     atom   42 type  3   force =     0.00000000    0.00000000    0.00000000
     atom   43 type  3   force =     0.00000000    0.00000000    0.00000000
     atom   44 type  3   force =     0.00000000    0.00000000    0.00000000
     The Hubbard contrib.    to forces
     atom    1 type  1   force =     0.00000000    0.00000000    0.00000000
     atom    2 type  1   force =     0.00000000    0.00000000    0.00000000
     atom    3 type  1   force =     0.00000000    0.00000000    0.00000000
     atom    4 type  1   force =     0.00000000    0.00000000    0.00000000
     atom    5 type  2   force =     0.00000000    0.00000000    0.00000000
     atom    6 type  2   force =     0.00000000    0.00000000    0.00000000
     atom    7 type  1   force =     0.00000000    0.00000000    0.00000000
     atom    8 type  1   force =     0.00000000    0.00000000    0.00000000
     atom    9 type  2   force =     0.00000000    0.00000000    0.00000000
     atom   10 type  2   force =     0.00000000    0.00000000    0.00000000
     atom   11 type  1   force =     0.00000000    0.00000000    0.00000000
     atom   12 type  1   force =     0.00000000    0.00000000    0.00000000
     atom   13 type  1   force =     0.00000000    0.00000000    0.00000000
     atom   14 type  1   force =     0.00000000    0.00000000    0.00000000
     atom   15 type  1   force =     0.00000000    0.00000000    0.00000000
     atom   16 type  1   force =     0.00000000    0.00000000    0.00000000
     atom   17 type  2   force =     0.00000000    0.00000000    0.00000000
     atom   18 type  2   force =     0.00000000    0.00000000    0.00000000
     atom   19 type  1   force =     0.00000000    0.00000000    0.00000000
     atom   20 type  1   force =     0.00000000    0.00000000    0.00000000
     atom   21 type  2   force =     0.00000000    0.00000000    0.00000000
     atom   22 type  2   force =     0.00000000    0.00000000    0.00000000
     atom   23 type  1   force =     0.00000000    0.00000000    0.00000000
     atom   24 type  1   force =     0.00000000    0.00000000    0.00000000
     atom   25 type  1   force =     0.00000000    0.00000000    0.00000000
     atom   26 type  1   force =     0.00000000    0.00000000    0.00000000
     atom   27 type  1   force =     0.00000000    0.00000000    0.00000000
     atom   28 type  1   force =     0.00000000    0.00000000    0.00000000
     atom   29 type  2   force =     0.00000000    0.00000000    0.00000000
     atom   30 type  2   force =     0.00000000    0.00000000    0.00000000
     atom   31 type  1   force =     0.00000000    0.00000000    0.00000000
     atom   32 type  1   force =     0.00000000    0.00000000    0.00000000
     atom   33 type  2   force =     0.00000000    0.00000000    0.00000000
     atom   34 type  2   force =     0.00000000    0.00000000    0.00000000
     atom   35 type  1   force =     0.00000000    0.00000000    0.00000000
     atom   36 type  1   force =     0.00000000    0.00000000    0.00000000
     atom   37 type  1   force =     0.00000000    0.00000000    0.00000000
     atom   38 type  1   force =     0.00000000    0.00000000    0.00000000
     atom   39 type  1   force =     0.00000000    0.00000000    0.00000000
     atom   40 type  1   force =     0.00000000    0.00000000    0.00000000
     atom   41 type  3   force =     0.00000000    0.00000000    0.00000000
     atom   42 type  3   force =     0.00000000    0.00000000    0.00000000
     atom   43 type  3   force =     0.00000000    0.00000000    0.00000000
     atom   44 type  3   force =     0.00000000    0.00000000    0.00000000
     The SCF correction term to forces
     atom    1 type  1   force =     0.00000499    0.00000217    0.00000347
     atom    2 type  1   force =    -0.00000642    0.00000622   -0.00000668
     atom    3 type  1   force =     0.00000007   -0.00000178   -0.00000361
     atom    4 type  1   force =     0.00000203   -0.00000763    0.00000582
     atom    5 type  2   force =    -0.00001444   -0.00000616    0.00000432
     atom    6 type  2   force =     0.00001373   -0.00000353   -0.00000446
     atom    7 type  1   force =    -0.00001514    0.00000944    0.00000432
     atom    8 type  1   force =     0.00001514    0.00000840    0.00000302
     atom    9 type  2   force =     0.00000516    0.00000259   -0.00000186
     atom   10 type  2   force =    -0.00000387    0.00000678    0.00001646
     atom   11 type  1   force =    -0.00001417   -0.00000787    0.00000176
     atom   12 type  1   force =     0.00001424   -0.00000751    0.00000199
     atom   13 type  1   force =     0.00000242   -0.00000060    0.00000424
     atom   14 type  1   force =    -0.00000232   -0.00000071    0.00000695
     atom   15 type  1   force =     0.00000507    0.00000032    0.00000073
     atom   16 type  1   force =    -0.00000514    0.00000041    0.00001521
     atom   17 type  2   force =     0.00000581   -0.00000058    0.00001442
     atom   18 type  2   force =    -0.00000594   -0.00000077    0.00001440
     atom   19 type  1   force =    -0.00000231    0.00001159    0.00000524
     atom   20 type  1   force =     0.00000246    0.00000626    0.00000528
     atom   21 type  2   force =    -0.00000749    0.00000089    0.00001408
     atom   22 type  2   force =     0.00000698    0.00000069    0.00001415
     atom   23 type  1   force =    -0.00000230   -0.00001179    0.00000523
     atom   24 type  1   force =     0.00000242   -0.00000644    0.00000528
     atom   25 type  1   force =     0.00000504    0.00000031    0.00000730
     atom   26 type  1   force =    -0.00000511    0.00000040   -0.00000782
     atom   27 type  1   force =     0.00000232   -0.00000059    0.00000028
     atom   28 type  1   force =    -0.00000221   -0.00000069   -0.00000237
     atom   29 type  2   force =    -0.00001440   -0.00000609   -0.00000777
     atom   30 type  2   force =     0.00001367   -0.00000348    0.00000084
     atom   31 type  1   force =    -0.00001523    0.00000918   -0.00000532
     atom   32 type  1   force =     0.00001521    0.00000810   -0.00000418
     atom   33 type  2   force =     0.00000497    0.00000253   -0.00000142
     atom   34 type  2   force =    -0.00000362    0.00000672   -0.00002113
     atom   35 type  1   force =    -0.00001426   -0.00000763   -0.00000274
     atom   36 type  1   force =     0.00001431   -0.00000723   -0.00000312
     atom   37 type  1   force =    -0.00000003   -0.00000176    0.00000004
     atom   38 type  1   force =     0.00000213   -0.00000763   -0.00000948
     atom   39 type  1   force =     0.00000486    0.00000216   -0.00000678
     atom   40 type  1   force =    -0.00000634    0.00000621    0.00000343
     atom   41 type  3   force =    -0.00000308    0.00000035    0.00000063
     atom   42 type  3   force =    -0.00000306    0.00000035   -0.00000109
     atom   43 type  3   force =     0.00000012   -0.00000027   -0.00000155
     atom   44 type  3   force =     0.00000012   -0.00000027    0.00000110

     Total force =     0.280307     Total SCF correction =     0.000083

     BFGS Geometry Optimization
     Energy error            =      0.0E+00 Ry
     Gradient error          =      1.0E-01 Ry/Bohr

     number of scf cycles    =   1
     number of bfgs steps    =   0

     energy             new  =   -3432.5305904257 Ry

     new trust radius        =       0.1051399865 bohr
     new conv_thr            =       0.0000000010 Ry


ATOMIC_POSITIONS (crystal)
O             0.0098310711        0.5031919482        0.2711970490
O             0.4779415290        0.5027511573        0.2736049286
O            -0.0007629314        0.0008141470        0.3083953971
O             0.4968015227       -0.0027092135        0.3010229549
Ru            0.2417960868        0.0025394758        0.3567562122
Ru            0.7539660154        0.0026750713        0.3561606624
O             0.2478089861        0.3135024857        0.3591849313
O             0.7516987742        0.3157234579        0.3566681588
Ru            0.0021044459        0.5024014969        0.3582065018
Ru            0.5037223437        0.5031222687        0.3516800287
O             0.2474414161        0.6916769303        0.3594430603
O             0.7520239600        0.6896397566        0.3571255891
O            -0.0036432746        0.0017345524        0.4120328999
O             0.5017238059        0.0023010087        0.4122308649
O            -0.0002509001        0.5017953334        0.4462073280
O             0.4964915628        0.5020275867        0.4412787433
Ru           -0.0030580228        0.0023200165        0.5000010000
Ru            0.4996234676        0.0016057115        0.5000010000
O             0.2496540518        0.1885584794        0.5000010000
O             0.7472264259        0.1902918322        0.5000010000
Ru            0.2540308576        0.5019485511        0.5000010000
Ru            0.7455134247        0.5019543497        0.5000010000
O             0.2496184146        0.8152439748        0.5000010000
O             0.7471880020        0.8135165796        0.5000010000
O            -0.0002509001        0.5017953334        0.5537936720
O             0.4964915628        0.5020275867        0.5587222567
O            -0.0036432746        0.0017345524        0.5879681001
O             0.5017238059        0.0023010087        0.5877701351
Ru            0.2417960868        0.0025394758        0.6432447878
Ru            0.7539660154        0.0026750713        0.6438403376
O             0.2478089861        0.3135024857        0.6408160687
O             0.7516987742        0.3157234579        0.6433328412
Ru            0.0021044459        0.5024014969        0.6417944982
Ru            0.5037223437        0.5031222687        0.6483209713
O             0.2474414161        0.6916769303        0.6405579397
O             0.7520239600        0.6896397566        0.6428754109
O            -0.0007629314        0.0008141470        0.6916066029
O             0.4968015227       -0.0027092135        0.6989790451
O             0.0098310711        0.5031919482        0.7288039510
O             0.4779415290        0.5027511573        0.7263960714
H             0.1482643323        0.5060343725        0.2561625711
H             0.1482643323        0.5060343725        0.7438374289
H             0.4957779434        0.0672754166        0.2598962138
H             0.4957779434        0.0672754166        0.7401037862



     Writing config-only to output data dir /storage/home/mgm6007/ixd4/Maria/Strain1_Files/RuO2-110-0-03/RuO2-110-0-03.save/
     NEW-OLD atomic charge density approx. for the potential

     Check: negative core charge=   -0.000001

     negative rho (up, down):  1.450E-04 0.000E+00

     add environment contribution to local potential
     Polarization accuracy = 9.1E-12, # of iterations =  45

     total cpu time spent up to now is    15954.8 secs

     per-process dynamical memory:   216.1 Mb

     Self-consistent Calculation

     iteration #  1     ecut=    50.00 Ry     beta= 0.70
     Davidson diagonalization with overlap
     ethr =  1.00E-06,  avg # of iterations = 11.0

     negative rho (up, down):  5.524E-04 0.000E+00

     add environment contribution to local potential
     Polarization accuracy = 5.6E-12, # of iterations =  45

     total cpu time spent up to now is    16117.9 secs

     total energy              =   -3432.56009718 Ry
     estimated scf accuracy    <       0.05675772 Ry
     electrostatic embedding   =      -0.05372562 Ry
     cavitation energy         =       0.02098095 Ry
     PV energy                 =      -0.07940417 Ry
     correction to one-el term =     193.79507471 Ry

     iteration #  2     ecut=    50.00 Ry     beta= 0.70
     Davidson diagonalization with overlap
     ethr =  1.56E-05,  avg # of iterations =  2.0

     negative rho (up, down):  5.142E-04 0.000E+00

     add environment contribution to local potential
     Polarization accuracy = 5.7E-12, # of iterations =  45

     total cpu time spent up to now is    16302.9 secs

     total energy              =   -3432.56423654 Ry
     estimated scf accuracy    <       0.09447553 Ry
     electrostatic embedding   =      -0.05471606 Ry
     cavitation energy         =       0.02098024 Ry
     PV energy                 =      -0.07932382 Ry
     correction to one-el term =     194.01326950 Ry

     iteration #  3     ecut=    50.00 Ry     beta= 0.70
     Davidson diagonalization with overlap
     ethr =  1.56E-05,  avg # of iterations =  1.0

     negative rho (up, down):  7.818E-04 0.000E+00

     add environment contribution to local potential
     Polarization accuracy = 7.4E-12, # of iterations =  45

     total cpu time spent up to now is    16481.7 secs

     total energy              =   -3432.56901363 Ry
     estimated scf accuracy    <       0.00630768 Ry
     electrostatic embedding   =      -0.05482365 Ry
     cavitation energy         =       0.02096214 Ry
     PV energy                 =      -0.07935339 Ry
     correction to one-el term =     193.94309665 Ry

     iteration #  4     ecut=    50.00 Ry     beta= 0.70
     Davidson diagonalization with overlap
     ethr =  1.73E-06,  avg # of iterations =  1.5

     negative rho (up, down):  1.044E-03 0.000E+00

     add environment contribution to local potential
     Polarization accuracy = 5.1E-12, # of iterations =  45

     total cpu time spent up to now is    16652.1 secs

     total energy              =   -3432.56922452 Ry
     estimated scf accuracy    <       0.00117649 Ry
     electrostatic embedding   =      -0.05528813 Ry
     cavitation energy         =       0.02095723 Ry
     PV energy                 =      -0.07935176 Ry
     correction to one-el term =     193.98172612 Ry

     iteration #  5     ecut=    50.00 Ry     beta= 0.70
     Davidson diagonalization with overlap
     ethr =  3.23E-07,  avg # of iterations =  2.0

     negative rho (up, down):  1.125E-03 0.000E+00

     add environment contribution to local potential
     Polarization accuracy = 4.6E-12, # of iterations =  46

     total cpu time spent up to now is    16823.9 secs

     total energy              =   -3432.56933460 Ry
     estimated scf accuracy    <       0.00098204 Ry
     electrostatic embedding   =      -0.05590915 Ry
     cavitation energy         =       0.02094649 Ry
     PV energy                 =      -0.07935540 Ry
     correction to one-el term =     194.00031008 Ry

     iteration #  6     ecut=    50.00 Ry     beta= 0.70
     Davidson diagonalization with overlap
     ethr =  2.70E-07,  avg # of iterations =  1.0

     negative rho (up, down):  1.100E-03 0.000E+00

     add environment contribution to local potential
     Polarization accuracy = 4.2E-12, # of iterations =  46

     total cpu time spent up to now is    16983.7 secs

     total energy              =   -3432.56938754 Ry
     estimated scf accuracy    <       0.00018811 Ry
     electrostatic embedding   =      -0.05626431 Ry
     cavitation energy         =       0.02094297 Ry
     PV energy                 =      -0.07935777 Ry
     correction to one-el term =     194.00586478 Ry

     iteration #  7     ecut=    50.00 Ry     beta= 0.70
     Davidson diagonalization with overlap
     ethr =  5.17E-08,  avg # of iterations =  2.0

     negative rho (up, down):  9.958E-04 0.000E+00

     add environment contribution to local potential
     Polarization accuracy = 4.0E-12, # of iterations =  46

     total cpu time spent up to now is    17142.0 secs

     total energy              =   -3432.56939824 Ry
     estimated scf accuracy    <       0.00005059 Ry
     electrostatic embedding   =      -0.05655516 Ry
     cavitation energy         =       0.02094057 Ry
     PV energy                 =      -0.07936194 Ry
     correction to one-el term =     193.99586694 Ry

     iteration #  8     ecut=    50.00 Ry     beta= 0.70
     Davidson diagonalization with overlap
     ethr =  1.39E-08,  avg # of iterations =  2.0

     negative rho (up, down):  8.696E-04 0.000E+00

     add environment contribution to local potential
     Polarization accuracy = 4.0E-12, # of iterations =  45

     total cpu time spent up to now is    17280.9 secs

     total energy              =   -3432.56940698 Ry
     estimated scf accuracy    <       0.00004738 Ry
     electrostatic embedding   =      -0.05688714 Ry
     cavitation energy         =       0.02093830 Ry
     PV energy                 =      -0.07936772 Ry
     correction to one-el term =     193.97027091 Ry

     iteration #  9     ecut=    50.00 Ry     beta= 0.70
     Davidson diagonalization with overlap
     ethr =  1.30E-08,  avg # of iterations =  2.0

     negative rho (up, down):  6.959E-04 0.000E+00

     add environment contribution to local potential
     Polarization accuracy = 3.9E-12, # of iterations =  45

     total cpu time spent up to now is    17425.3 secs

     total energy              =   -3432.56941240 Ry
     estimated scf accuracy    <       0.00000784 Ry
     electrostatic embedding   =      -0.05723615 Ry
     cavitation energy         =       0.02093678 Ry
     PV energy                 =      -0.07937258 Ry
     correction to one-el term =     193.94304323 Ry

     iteration # 10     ecut=    50.00 Ry     beta= 0.70
     Davidson diagonalization with overlap
     ethr =  2.15E-09,  avg # of iterations =  3.0

     negative rho (up, down):  4.929E-04 0.000E+00

     add environment contribution to local potential
     Polarization accuracy = 4.4E-12, # of iterations =  46

     total cpu time spent up to now is    17583.6 secs

     total energy              =   -3432.56941527 Ry
     estimated scf accuracy    <       0.00000319 Ry
     electrostatic embedding   =      -0.05756509 Ry
     cavitation energy         =       0.02093616 Ry
     PV energy                 =      -0.07937639 Ry
     correction to one-el term =     193.91033487 Ry

     iteration # 11     ecut=    50.00 Ry     beta= 0.70
     Davidson diagonalization with overlap
     ethr =  8.77E-10,  avg # of iterations =  3.0

     negative rho (up, down):  3.789E-04 0.000E+00

     add environment contribution to local potential
     Polarization accuracy = 4.6E-12, # of iterations =  45

     total cpu time spent up to now is    17764.0 secs

     total energy              =   -3432.56941613 Ry
     estimated scf accuracy    <       0.00000239 Ry
     electrostatic embedding   =      -0.05785727 Ry
     cavitation energy         =       0.02093641 Ry
     PV energy                 =      -0.07937905 Ry
     correction to one-el term =     193.87425116 Ry

     iteration # 12     ecut=    50.00 Ry     beta= 0.70
     Davidson diagonalization with overlap
     ethr =  6.57E-10,  avg # of iterations =  3.0

     negative rho (up, down):  2.616E-04 0.000E+00

     add environment contribution to local potential
     Polarization accuracy = 3.9E-12, # of iterations =  45

     total cpu time spent up to now is    17921.0 secs

     total energy              =   -3432.56941608 Ry
     estimated scf accuracy    <       0.00000054 Ry
     electrostatic embedding   =      -0.05800485 Ry
     cavitation energy         =       0.02093676 Ry
     PV energy                 =      -0.07938003 Ry
     correction to one-el term =     193.85366242 Ry

     iteration # 13     ecut=    50.00 Ry     beta= 0.70
     Davidson diagonalization with overlap
     ethr =  1.48E-10,  avg # of iterations =  3.5

     negative rho (up, down):  2.078E-04 0.000E+00

     add environment contribution to local potential
     Polarization accuracy = 4.0E-12, # of iterations =  45

     total cpu time spent up to now is    18090.5 secs

     total energy              =   -3432.56941569 Ry
     estimated scf accuracy    <       0.00000014 Ry
     electrostatic embedding   =      -0.05813937 Ry
     cavitation energy         =       0.02093740 Ry
     PV energy                 =      -0.07938040 Ry
     correction to one-el term =     193.83171156 Ry

     iteration # 14     ecut=    50.00 Ry     beta= 0.70
     Davidson diagonalization with overlap
     ethr =  3.93E-11,  avg # of iterations =  2.0

     negative rho (up, down):  1.927E-04 0.000E+00

     add environment contribution to local potential
     Polarization accuracy = 3.9E-12, # of iterations =  45

     total cpu time spent up to now is    18260.1 secs

     total energy              =   -3432.56941559 Ry
     estimated scf accuracy    <       0.00000012 Ry
     electrostatic embedding   =      -0.05817508 Ry
     cavitation energy         =       0.02093786 Ry
     PV energy                 =      -0.07938006 Ry
     correction to one-el term =     193.82187410 Ry

[...]
     atom   31 type  1   force =     0.00000000    0.00000000    0.00000000
     atom   32 type  1   force =     0.00000000    0.00000000    0.00000000
     atom   33 type  2   force =     0.00000000    0.00000000    0.00000000
     atom   34 type  2   force =     0.00000000    0.00000000    0.00000000
     atom   35 type  1   force =     0.00000000    0.00000000    0.00000000
     atom   36 type  1   force =     0.00000000    0.00000000    0.00000000
     atom   37 type  1   force =     0.00000000    0.00000000    0.00000000
     atom   38 type  1   force =     0.00000000    0.00000000    0.00000000
     atom   39 type  1   force =     0.00000000    0.00000000    0.00000000
     atom   40 type  1   force =     0.00000000    0.00000000    0.00000000
     atom   41 type  3   force =     0.00000000    0.00000000    0.00000000
     atom   42 type  3   force =     0.00000000    0.00000000    0.00000000
     atom   43 type  3   force =     0.00000000    0.00000000    0.00000000
     atom   44 type  3   force =     0.00000000    0.00000000    0.00000000
     The SCF correction term to forces
     atom    1 type  1   force =     0.00000017   -0.00000019    0.00000108
     atom    2 type  1   force =    -0.00000005    0.00000032    0.00000129
     atom    3 type  1   force =     0.00000016    0.00000021    0.00000133
     atom    4 type  1   force =    -0.00000027   -0.00000035    0.00000088
     atom    5 type  2   force =     0.00000125    0.00000007    0.00000262
     atom    6 type  2   force =    -0.00000097   -0.00000004    0.00000240
     atom    7 type  1   force =     0.00000025   -0.00000051    0.00000121
     atom    8 type  1   force =    -0.00000027   -0.00000025    0.00000117
     atom    9 type  2   force =     0.00000036   -0.00000017    0.00000394
     atom   10 type  2   force =    -0.00000022    0.00000025    0.00000385
     atom   11 type  1   force =     0.00000040    0.00000047    0.00000123
     atom   12 type  1   force =    -0.00000041    0.00000025    0.00000109
     atom   13 type  1   force =     0.00000021    0.00000008    0.00000078
     atom   14 type  1   force =    -0.00000034    0.00000001    0.00000033
     atom   15 type  1   force =     0.00000032    0.00000002    0.00000094
     atom   16 type  1   force =    -0.00000022    0.00000003    0.00000064
     atom   17 type  2   force =     0.00000022    0.00000015   -0.00000003
     atom   18 type  2   force =    -0.00000036    0.00000003   -0.00000003
     atom   19 type  1   force =    -0.00000009    0.00000044   -0.00000001
     atom   20 type  1   force =     0.00000015    0.00000019   -0.00000001
     atom   21 type  2   force =    -0.00000008   -0.00000014   -0.00000003
     atom   22 type  2   force =    -0.00000007   -0.00000012   -0.00000003
     atom   23 type  1   force =    -0.00000002   -0.00000033   -0.00000001
     atom   24 type  1   force =     0.00000009   -0.00000008   -0.00000001
     atom   25 type  1   force =     0.00000032    0.00000002   -0.00000096
     atom   26 type  1   force =    -0.00000022    0.00000003   -0.00000066
     atom   27 type  1   force =     0.00000021    0.00000008   -0.00000079
     atom   28 type  1   force =    -0.00000034    0.00000001   -0.00000034
     atom   29 type  2   force =     0.00000125    0.00000007   -0.00000262
     atom   30 type  2   force =    -0.00000097   -0.00000004   -0.00000240
     atom   31 type  1   force =     0.00000025   -0.00000051   -0.00000121
     atom   32 type  1   force =    -0.00000028   -0.00000026   -0.00000117
     atom   33 type  2   force =     0.00000036   -0.00000017   -0.00000393
     atom   34 type  2   force =    -0.00000022    0.00000025   -0.00000385
     atom   35 type  1   force =     0.00000040    0.00000047   -0.00000123
     atom   36 type  1   force =    -0.00000041    0.00000025   -0.00000109
     atom   37 type  1   force =     0.00000016    0.00000021   -0.00000133
     atom   38 type  1   force =    -0.00000027   -0.00000035   -0.00000087
     atom   39 type  1   force =     0.00000017   -0.00000019   -0.00000107
     atom   40 type  1   force =    -0.00000005    0.00000032   -0.00000128
     atom   41 type  3   force =     0.00000010   -0.00000001    0.00000011
     atom   42 type  3   force =     0.00000010   -0.00000001   -0.00000011
     atom   43 type  3   force =    -0.00000001   -0.00000006    0.00000022
     atom   44 type  3   force =    -0.00000001   -0.00000006   -0.00000022

     Total force =     0.002574     Total SCF correction =     0.000011
     Energy error            =      1.0E-05 Ry
     Gradient error          =      7.5E-04 Ry/Bohr

     number of scf cycles    =  32
     number of bfgs steps    =  31

     energy             old  =   -3432.5784514302 Ry
     energy             new  =   -3432.5784618891 Ry

     CASE: energy            _new < energy            _old

     new trust radius        =       0.0155737576 bohr
     new conv_thr            =            1.0E-11 Ry


ATOMIC_POSITIONS (crystal)
O            -0.0001584311        0.5041524514        0.2711064667
O             0.4868529430        0.5045482607        0.2744033289
O            -0.0003277051        0.0034795572        0.3068674369
O             0.4983596765        0.0026513279        0.3022526120
Ru            0.2410357140        0.0044269352        0.3563536770
Ru            0.7565750300        0.0044503883        0.3561076859
O             0.2483232453        0.3165982274        0.3597182672
O             0.7515290816        0.3176124281        0.3581292611
Ru            0.0009858577        0.5041514724        0.3582840091
Ru            0.5018809890        0.5046551892        0.3524914557
O             0.2478840360        0.6920592707        0.3598872672
O             0.7519384433        0.6910440825        0.3584101519
O            -0.0017528381        0.0037360716        0.4110624665
O             0.4998804148        0.0037938083        0.4117660128
O             0.0017411070        0.5027638875        0.4465422799
O             0.5009775268        0.5032493627        0.4436218762
Ru           -0.0016952011        0.0031279665        0.5000010000
Ru            0.4985659563        0.0024799350        0.5000010000
O             0.2479080553        0.1889800471        0.5000010000
O             0.7472314812        0.1891164467        0.5000010000
Ru            0.2541777876        0.5027465872        0.5000010000
Ru            0.7506376833        0.5027128761        0.5000010000
O             0.2474286206        0.8165459619        0.5000010000
O             0.7477275063        0.8163608573        0.5000010000
O             0.0017411070        0.5027638875        0.5534587201
O             0.5009775268        0.5032493627        0.5563791238
O            -0.0017528381        0.0037360716        0.5889385335
O             0.4998804148        0.0037938083        0.5882349872
Ru            0.2410357140        0.0044269352        0.6436473230
Ru            0.7565750300        0.0044503883        0.6438933141
O             0.2483232453        0.3165982274        0.6402827328
O             0.7515290816        0.3176124281        0.6418717389
Ru            0.0009858577        0.5041514724        0.6417169909
Ru            0.5018809890        0.5046551892        0.6475095443
O             0.2478840360        0.6920592707        0.6401137328
O             0.7519384433        0.6910440825        0.6415908481
O            -0.0003277051        0.0034795572        0.6931345631
O             0.4983596765        0.0026513279        0.6977493880
O            -0.0001584311        0.5041524514        0.7288945333
O             0.4868529430        0.5045482607        0.7255976711
H             0.1375023820        0.5055840781        0.2537576922
H             0.1375023820        0.5055840781        0.7462423078
H             0.4984165825        0.0342248618        0.2589095645
H             0.4984165825        0.0342248618        0.7410904355



     Writing config-only to output data dir /storage/home/mgm6007/ixd4/Maria/Strain1_Files/RuO2-110-0-03/RuO2-110-0-03.save/
     NEW-OLD atomic charge density approx. for the potential

     Check: negative core charge=   -0.000001

     negative rho (up, down):  1.485E-04 0.000E+00

     add environment contribution to local potential
     Polarization accuracy = 5.2E-12, # of iterations =  45

     total cpu time spent up to now is   205137.4 secs

     per-process dynamical memory:   216.1 Mb

     Self-consistent Calculation

     iteration #  1     ecut=    50.00 Ry     beta= 0.70
     Davidson diagonalization with overlap
     ethr =  1.00E-06,  avg # of iterations =  3.0

     Threshold (ethr) on eigenvalues was too large:
     Diagonalizing with lowered threshold

     Davidson diagonalization with overlap
     ethr =  4.36E-09,  avg # of iterations =  3.0

     negative rho (up, down):  1.313E-04 0.000E+00

     add environment contribution to local potential
     Polarization accuracy = 6.1E-12, # of iterations =  45

     total cpu time spent up to now is   205276.9 secs

     total energy              =   -3432.57845257 Ry
     estimated scf accuracy    <       0.00001767 Ry
     electrostatic embedding   =      -0.06151608 Ry
     cavitation energy         =       0.02092327 Ry
     PV energy                 =      -0.07947353 Ry
     correction to one-el term =     192.95031112 Ry

     iteration #  2     ecut=    50.00 Ry     beta= 0.70
     Davidson diagonalization with overlap
     ethr =  4.85E-09,  avg # of iterations =  2.0

     negative rho (up, down):  1.245E-04 0.000E+00

     add environment contribution to local potential
     Polarization accuracy = 4.8E-12, # of iterations =  45

     total cpu time spent up to now is   205418.7 secs

     total energy              =   -3432.57846415 Ry
     estimated scf accuracy    <       0.00001044 Ry
     electrostatic embedding   =      -0.06151470 Ry
     cavitation energy         =       0.02091545 Ry
     PV energy                 =      -0.07947365 Ry
     correction to one-el term =     192.95934009 Ry

     iteration #  3     ecut=    50.00 Ry     beta= 0.70
     Davidson diagonalization with overlap
     ethr =  2.87E-09,  avg # of iterations =  2.0

     negative rho (up, down):  1.143E-04 0.000E+00

     add environment contribution to local potential
     Polarization accuracy = 9.4E-12, # of iterations =  45

     total cpu time spent up to now is   205567.1 secs

     total energy              =   -3432.57846823 Ry
     estimated scf accuracy    <       0.00000575 Ry
     electrostatic embedding   =      -0.06152414 Ry
     cavitation energy         =       0.02091251 Ry
     PV energy                 =      -0.07947358 Ry
     correction to one-el term =     192.95971469 Ry

     iteration #  4     ecut=    50.00 Ry     beta= 0.70
     Davidson diagonalization with overlap
     ethr =  1.58E-09,  avg # of iterations =  3.0

     negative rho (up, down):  1.126E-04 0.000E+00

     add environment contribution to local potential
     Polarization accuracy = 9.3E-12, # of iterations =  44

     total cpu time spent up to now is   205674.7 secs

     total energy              =   -3432.57847201 Ry
     estimated scf accuracy    <       0.00000090 Ry
     electrostatic embedding   =      -0.06154461 Ry
     cavitation energy         =       0.02090838 Ry
     PV energy                 =      -0.07947304 Ry
     correction to one-el term =     192.96044791 Ry

     iteration #  5     ecut=    50.00 Ry     beta= 0.70
     Davidson diagonalization with overlap
     ethr =  2.48E-10,  avg # of iterations =  2.0

     negative rho (up, down):  1.125E-04 0.000E+00

     add environment contribution to local potential
     Polarization accuracy = 5.8E-12, # of iterations =  45

     total cpu time spent up to now is   205827.9 secs

     total energy              =   -3432.57847263 Ry
     estimated scf accuracy    <       0.00000071 Ry
     electrostatic embedding   =      -0.06155599 Ry
     cavitation energy         =       0.02090738 Ry
     PV energy                 =      -0.07947240 Ry
     correction to one-el term =     192.95999114 Ry

     iteration #  6     ecut=    50.00 Ry     beta= 0.70
     Davidson diagonalization with overlap
     ethr =  1.95E-10,  avg # of iterations =  2.0

     negative rho (up, down):  1.150E-04 0.000E+00

     add environment contribution to local potential
     Polarization accuracy = 5.2E-12, # of iterations =  46

     total cpu time spent up to now is   205957.1 secs

     total energy              =   -3432.57847272 Ry
     estimated scf accuracy    <       0.00000025 Ry
     electrostatic embedding   =      -0.06156767 Ry
     cavitation energy         =       0.02090657 Ry
     PV energy                 =      -0.07947170 Ry
     correction to one-el term =     192.95865759 Ry

     iteration #  7     ecut=    50.00 Ry     beta= 0.70
     Davidson diagonalization with overlap
     ethr =  6.88E-11,  avg # of iterations =  3.0

     negative rho (up, down):  1.193E-04 0.000E+00

     add environment contribution to local potential
     Polarization accuracy = 9.8E-12, # of iterations =  44

     total cpu time spent up to now is   206099.5 secs

     total energy              =   -3432.57847253 Ry
     estimated scf accuracy    <       0.00000011 Ry
     electrostatic embedding   =      -0.06158146 Ry
     cavitation energy         =       0.02090572 Ry
     PV energy                 =      -0.07947079 Ry
     correction to one-el term =     192.95720184 Ry

     iteration #  8     ecut=    50.00 Ry     beta= 0.70
     Davidson diagonalization with overlap
     ethr =  3.02E-11,  avg # of iterations =  2.0

     negative rho (up, down):  1.244E-04 0.000E+00

     add environment contribution to local potential
     Polarization accuracy = 8.5E-12, # of iterations =  45

     total cpu time spent up to now is   206237.5 secs

     total energy              =   -3432.57847246 Ry
     estimated scf accuracy    <       0.00000006 Ry
     electrostatic embedding   =      -0.06158321 Ry
     cavitation energy         =       0.02090563 Ry
     PV energy                 =      -0.07947049 Ry
     correction to one-el term =     192.95730541 Ry

     iteration #  9     ecut=    50.00 Ry     beta= 0.70
     Davidson diagonalization with overlap
     ethr =  1.70E-11,  avg # of iterations =  1.0

     negative rho (up, down):  1.299E-04 0.000E+00

     add environment contribution to local potential
     Polarization accuracy = 5.5E-12, # of iterations =  45

     total cpu time spent up to now is   206360.3 secs

     total energy              =   -3432.57847249 Ry
     estimated scf accuracy    <       0.00000004 Ry
     electrostatic embedding   =      -0.06158279 Ry
     cavitation energy         =       0.02090569 Ry
     PV energy                 =      -0.07947029 Ry
     correction to one-el term =     192.95778587 Ry

     iteration # 10     ecut=    50.00 Ry     beta= 0.70
     Davidson diagonalization with overlap
     ethr =  1.13E-11,  avg # of iterations =  2.0

     negative rho (up, down):  1.355E-04 0.000E+00

     add environment contribution to local potential
     Polarization accuracy = 5.9E-12, # of iterations =  45

     total cpu time spent up to now is   206489.3 secs

     total energy              =   -3432.57847256 Ry
     estimated scf accuracy    <       0.00000002 Ry
     electrostatic embedding   =      -0.06158177 Ry
     cavitation energy         =       0.02090578 Ry
     PV energy                 =      -0.07947015 Ry
     correction to one-el term =     192.95834442 Ry

     iteration # 11     ecut=    50.00 Ry     beta= 0.70
     Davidson diagonalization with overlap
     ethr =  4.77E-12,  avg # of iterations =  2.0

     negative rho (up, down):  1.401E-04 0.000E+00

     add environment contribution to local potential
     Polarization accuracy = 5.4E-12, # of iterations =  45

     total cpu time spent up to now is   206628.0 secs

     total energy              =   -3432.57847261 Ry
     estimated scf accuracy    <       0.00000001 Ry
     electrostatic embedding   =      -0.06158099 Ry
     cavitation energy         =       0.02090585 Ry
     PV energy                 =      -0.07947001 Ry
     correction to one-el term =     192.95894439 Ry

     iteration # 12     ecut=    50.00 Ry     beta= 0.70
     Davidson diagonalization with overlap
     ethr =  2.94E-12,  avg # of iterations =  2.0

     negative rho (up, down):  1.456E-04 0.000E+00

     add environment contribution to local potential
     Polarization accuracy = 9.8E-12, # of iterations =  44

     total cpu time spent up to now is   206762.1 secs

     total energy              =   -3432.57847265 Ry
     estimated scf accuracy    <          4.3E-09 Ry
     electrostatic embedding   =      -0.06158035 Ry
     cavitation energy         =       0.02090589 Ry
     PV energy                 =      -0.07946990 Ry
     correction to one-el term =     192.95945650 Ry

     iteration # 13     ecut=    50.00 Ry     beta= 0.70
     Davidson diagonalization with overlap
     ethr =  1.19E-12,  avg # of iterations =  2.0

     negative rho (up, down):  1.473E-04 0.000E+00

     add environment contribution to local potential
     Polarization accuracy = 6.0E-12, # of iterations =  45

     total cpu time spent up to now is   206885.6 secs

     total energy              =   -3432.57847269 Ry
     estimated scf accuracy    <          1.1E-09 Ry
     electrostatic embedding   =      -0.06158012 Ry
     cavitation energy         =       0.02090587 Ry
     PV energy                 =      -0.07946978 Ry
     correction to one-el term =     192.96011781 Ry

     iteration # 14     ecut=    50.00 Ry     beta= 0.70
     Davidson diagonalization with overlap
     ethr =  3.15E-13,  avg # of iterations =  2.5

     negative rho (up, down):  1.489E-04 0.000E+00

     add environment contribution to local potential
     Polarization accuracy = 7.9E-12, # of iterations =  45

     total cpu time spent up to now is   207029.7 secs

     total energy              =   -3432.57847269 Ry
     estimated scf accuracy    <          4.4E-10 Ry
     electrostatic embedding   =      -0.06158025 Ry
     cavitation energy         =       0.02090585 Ry
     PV energy                 =      -0.07946973 Ry
     correction to one-el term =     192.96030814 Ry

     iteration # 15     ecut=    50.00 Ry     beta= 0.70
     Davidson diagonalization with overlap
     ethr =  1.22E-13,  avg # of iterations =  2.0

     negative rho (up, down):  1.488E-04 0.000E+00

     add environment contribution to local potential
     Polarization accuracy = 5.6E-12, # of iterations =  45

     total cpu time spent up to now is   207157.8 secs

     total energy              =   -3432.57847269 Ry
     estimated scf accuracy    <          9.2E-11 Ry
     electrostatic embedding   =      -0.06158039 Ry
     cavitation energy         =       0.02090581 Ry
     PV energy                 =      -0.07946969 Ry
     correction to one-el term =     192.96049643 Ry

     iteration # 16     ecut=    50.00 Ry     beta= 0.70
     Davidson diagonalization with overlap
     ethr =  1.00E-13,  avg # of iterations =  2.0

     negative rho (up, down):  1.489E-04 0.000E+00

     add environment contribution to local potential
     Polarization accuracy = 5.1E-12, # of iterations =  46

     total cpu time spent up to now is   207274.2 secs

     total energy              =   -3432.57847268 Ry
     estimated scf accuracy    <          5.3E-11 Ry
     electrostatic embedding   =      -0.06158058 Ry
     cavitation energy         =       0.02090579 Ry
     PV energy                 =      -0.07946969 Ry
     correction to one-el term =     192.96049492 Ry

     iteration # 17     ecut=    50.00 Ry     beta= 0.70
     Davidson diagonalization with overlap
     ethr =  1.00E-13,  avg # of iterations =  1.0

     negative rho (up, down):  1.490E-04 0.000E+00
