
     Program PWSCF v.7.2 starts on 24Jul2023 at 16:10:38 
        Git branch: heads/qe-7.2
        Last git commit: b4c5e8deeb7d1863e7553a87b45f8d22c21926a5
        Last git commit date: Mon Mar 27 16:12:09 2023 +0000
        Last git commit subject: Merge branch 'merge_fix_hubbard' into 'develop'

     This program is part of the open-source Quantum ESPRESSO suite
     for quantum simulation of materials; please cite
         "P. Giannozzi et al., J. Phys.:Condens. Matter 21 395502 (2009);
         "P. Giannozzi et al., J. Phys.:Condens. Matter 29 465901 (2017);
         "P. Giannozzi et al., J. Chem. Phys. 152 154105 (2020);
          URL http://www.quantum-espresso.org", 
     in publications or presentations arising from this work. More details at
     http://www.quantum-espresso.org/quote

     Parallel version (MPI), running on    20 processors

     MPI processes distributed on     1 nodes
     201957 MiB available memory on the printing compute node when the environment starts
 
     Reading input from RuO2-110-0-.in
Warning: card  H 1.007940 H.PBE-RRKJUS_PSL.1.0.0.UPF ignored

     Current dimensions of program PWSCF are:
     Max number of different atomic species (ntypx) = 10
     Max number of k-points (npk) =  40000
     Max angular momentum in pseudopotentials (lmaxx) =  4
 
     Reading input from environ.in:
     * Environ restarting
     * setting up water environment
     * using electronic solvent mode
     * setting boundary derivatives method to SCCS default
     
     file O.pbe-n-kjpaw_psl.0.1.UPF: wavefunction(s)  2P renormalized
     Message from routine setup:
     using ibrav=0 with symmetry is DISCOURAGED, use correct ibrav instead
 
     R & G space division:  proc/nbgrp/npool/nimage =      20
     Subspace diagonalization in iterative solution of the eigenvalue problem:
     one sub-group per band group will be used
     scalapack distributed-memory algorithm (size of sub-group:  2*  2 procs)

 
     Parallelization info
     --------------------
     sticks:   dense  smooth     PW     G-vecs:    dense   smooth      PW
     Min         276     110     29                56224    14224    1921
     Max         277     111     30                56237    14237    1932
     Sum        5537    2217    585              1124641   284637   38483
 
     Using Slab Decomposition
 


     bravais-lattice index     =            0
     lattice parameter (alat)  =      12.3824  a.u.
     unit-cell volume          =    5957.5248 (a.u.)^3
     number of atoms/cell      =           40
     number of atomic types    =            2
     number of electrons       =       360.00
     number of Kohn-Sham states=          216
     kinetic-energy cutoff     =      50.0000  Ry
     charge density cutoff     =     500.0000  Ry
     scf convergence threshold =      1.0E-09
     mixing beta               =       0.7000
     number of iterations used =            8  local-TF  mixing
     energy convergence thresh.=      1.0E-04
     force convergence thresh. =      1.0E-04
     Exchange-correlation= PBE
                           (   1   4   3   4   0   0   0)
     nstep                     =          200


     ================================================================================
 
                                  Environ Setup Summary

     ================================================================================
 
     Please cite

          O. Andreussi, I. Dabo and N. Marzari, J. Chem. Phys. 136, 064102 (2012)

     in publications or presentations arising from this work.

     ================================================================================
 
     Parameters
     ==========

     compensation onset threshold      =               0.1000E+00
     static permittivity               =                    78.30
     surface tension in input (dyn/cm) =                    47.90
     surface tension in internal units =               0.6153E-04
     external pressure in input (GPa)  =                    -0.36
     external pressure in inter. units =              -0.2447E-04

     Solvent Boundary
     ================

     solvent mode                      =               electronic
     derivatives method                =                    chain
     numerical core for derivatives    =                      fft
     switching function adopted        =                     SCCS
     density limit for vacuum region   =               0.5000E-02
     density limit for bulk solvent    =               0.1000E-03

     Electrostatic Setup
     ===================

     electrostatic problem to solve    =              generalized
     numerical solver adopted          =                       cg
     type of auxiliary density adopted =                     none
     numerical core for poisson        =                      fft
     type of pbc corrections           =                parabolic
     numerical core for corrections    =                      1da

     ================================================================================
 

     celldm(1)=  12.382447  celldm(2)=   0.000000  celldm(3)=   0.000000
     celldm(4)=   0.000000  celldm(5)=   0.000000  celldm(6)=   0.000000

     crystal axes: (cart. coord. in units of alat)
               a(1) = (   1.000000   0.000000   0.000000 )  
               a(2) = (   0.000000   0.908473   0.000000 )  
               a(3) = (   0.000000   0.000000   3.454097 )  

     reciprocal axes: (cart. coord. in units 2 pi/alat)
               b(1) = (  1.000000  0.000000  0.000000 )  
               b(2) = (  0.000000  1.100748  0.000000 )  
               b(3) = (  0.000000  0.000000  0.289511 )  


     PseudoPot. # 1 for O  read from file:
     /gpfs/group/ixd4/default/Simon/pseudopotentials/materialscloud/SSSP_1.3.0_PBE_efficiency/O.pbe-n-kjpaw_psl.0.1.UPF
     MD5 check sum: 0234752ac141de4415c5fc33072bef88
     Pseudo is Projector augmented-wave + core cor, Zval =  6.0
     Generated using "atomic" code by A. Dal Corso  v.5.0.99 svn rev. 10869
     Shape of augmentation charge: BESSEL
     Using radial grid of 1095 points,  4 beta functions with: 
                l(1) =   0
                l(2) =   0
                l(3) =   1
                l(4) =   1
     Q(r) pseudized with 0 coefficients 


     PseudoPot. # 2 for Ru read from file:
     /gpfs/group/ixd4/default/Simon/pseudopotentials/materialscloud/SSSP_1.3.0_PBE_efficiency/Ru_ONCV_PBE-1.0.oncvpsp.upf
     MD5 check sum: be037bb81c227cfb9b1461a9f099f4bd
     Pseudo is Norm-conserving, Zval = 16.0
     Generated using ONCVPSP code by D. R. Hamann
     Using radial grid of 1458 points,  6 beta functions with: 
                l(1) =   0
                l(2) =   0
                l(3) =   1
                l(4) =   1
                l(5) =   2
                l(6) =   2

     atomic species   valence    mass     pseudopotential
        O              6.00    15.99940     O ( 1.00)
        Ru            16.00   101.07000     Ru( 1.00)

      8 Sym. Ops., with inversion, found


                                    s                        frac. trans.

      isym =  1     identity                                     

 cryst.   s( 1) = (     1          0          0      )
                  (     0          1          0      )
                  (     0          0          1      )

 cart.    s( 1) = (  1.0000000  0.0000000  0.0000000 )
                  (  0.0000000  1.0000000  0.0000000 )
                  (  0.0000000  0.0000000  1.0000000 )


      isym =  2     180 deg rotation - cart. axis [0,0,1]        

 cryst.   s( 2) = (    -1          0          0      )
                  (     0         -1          0      )
                  (     0          0          1      )

 cart.    s( 2) = ( -1.0000000  0.0000000  0.0000000 )
                  (  0.0000000 -1.0000000  0.0000000 )
                  (  0.0000000  0.0000000  1.0000000 )


      isym =  3     180 deg rotation - cart. axis [0,1,0]        

 cryst.   s( 3) = (    -1          0          0      )
                  (     0          1          0      )
                  (     0          0         -1      )

 cart.    s( 3) = ( -1.0000000  0.0000000  0.0000000 )
                  (  0.0000000  1.0000000  0.0000000 )
                  (  0.0000000  0.0000000 -1.0000000 )


      isym =  4     180 deg rotation - cart. axis [1,0,0]        

 cryst.   s( 4) = (     1          0          0      )
                  (     0         -1          0      )
                  (     0          0         -1      )

 cart.    s( 4) = (  1.0000000  0.0000000  0.0000000 )
                  (  0.0000000 -1.0000000  0.0000000 )
                  (  0.0000000  0.0000000 -1.0000000 )


      isym =  5     inversion                                    

 cryst.   s( 5) = (    -1          0          0      )
                  (     0         -1          0      )
                  (     0          0         -1      )

 cart.    s( 5) = ( -1.0000000  0.0000000  0.0000000 )
                  (  0.0000000 -1.0000000  0.0000000 )
                  (  0.0000000  0.0000000 -1.0000000 )


      isym =  6     inv. 180 deg rotation - cart. axis [0,0,1]   

 cryst.   s( 6) = (     1          0          0      )
                  (     0          1          0      )
                  (     0          0         -1      )

 cart.    s( 6) = (  1.0000000  0.0000000  0.0000000 )
                  (  0.0000000  1.0000000  0.0000000 )
                  (  0.0000000  0.0000000 -1.0000000 )


      isym =  7     inv. 180 deg rotation - cart. axis [0,1,0]   

 cryst.   s( 7) = (     1          0          0      )
                  (     0         -1          0      )
                  (     0          0          1      )

 cart.    s( 7) = (  1.0000000  0.0000000  0.0000000 )
                  (  0.0000000 -1.0000000  0.0000000 )
                  (  0.0000000  0.0000000  1.0000000 )


      isym =  8     inv. 180 deg rotation - cart. axis [1,0,0]   

 cryst.   s( 8) = (    -1          0          0      )
                  (     0          1          0      )
                  (     0          0          1      )

 cart.    s( 8) = ( -1.0000000  0.0000000  0.0000000 )
                  (  0.0000000  1.0000000  0.0000000 )
                  (  0.0000000  0.0000000  1.0000000 )


   Cartesian axes

     site n.     atom                  positions (alat units)
         1           O   tau(   1) = (   0.0000000   0.4542364   0.9652526  )
         2           O   tau(   2) = (   0.5000000   0.4542364   0.9673404  )
         3           O   tau(   3) = (   0.0000000   0.0000000   1.0803189  )
         4           O   tau(   4) = (   0.5000000   0.0000000   1.0801623  )
         5           Ru  tau(   5) = (   0.2501092   0.0000000   1.2387363  )
         6           Ru  tau(   6) = (   0.7498908   0.0000000   1.2387363  )
         7           O   tau(   7) = (   0.2505954   0.2804225   1.2508496  )
         8           O   tau(   8) = (   0.7494046   0.2804225   1.2508496  )
         9           Ru  tau(   9) = (   0.0000000   0.4542364   1.2241146  )
        10           Ru  tau(  10) = (   0.5000000   0.4542364   1.2258312  )
        11           O   tau(  11) = (   0.2505954   0.6280504   1.2508496  )
        12           O   tau(  12) = (   0.7494046   0.6280504   1.2508496  )
        13           O   tau(  13) = (   0.0000000   0.0000000   1.4330042  )
        14           O   tau(  14) = (   0.5000000   0.0000000   1.4333065  )
        15           O   tau(  15) = (   0.0000000   0.4542364   1.5337676  )
        16           O   tau(  16) = (   0.5000000   0.4542364   1.5465648  )
        17           Ru  tau(  17) = (   0.0000000   0.0000000   1.7270519  )
        18           Ru  tau(  18) = (   0.5000000   0.0000000   1.7270519  )
        19           O   tau(  19) = (   0.2489047   0.1756573   1.7270519  )
        20           O   tau(  20) = (   0.7510953   0.1756573   1.7270519  )
        21           Ru  tau(  21) = (   0.2470123   0.4542364   1.7270519  )
        22           Ru  tau(  22) = (   0.7529877   0.4542364   1.7270519  )
        23           O   tau(  23) = (   0.2489047   0.7328165   1.7270519  )
        24           O   tau(  24) = (   0.7510953   0.7328165   1.7270519  )
        25           O   tau(  25) = (   0.0000000   0.4542364   1.9203328  )
        26           O   tau(  26) = (   0.5000000   0.4542364   1.9075356  )
        27           O   tau(  27) = (   0.0000000   0.0000000   2.0210962  )
        28           O   tau(  28) = (   0.5000000   0.0000000   2.0207939  )
        29           Ru  tau(  29) = (   0.2501092   0.0000000   2.2153676  )
        30           Ru  tau(  30) = (   0.7498908   0.0000000   2.2153676  )
        31           O   tau(  31) = (   0.2505954   0.2804225   2.2032543  )
        32           O   tau(  32) = (   0.7494046   0.2804225   2.2032543  )
        33           Ru  tau(  33) = (   0.0000000   0.4542364   2.2299893  )
        34           Ru  tau(  34) = (   0.5000000   0.4542364   2.2282727  )
        35           O   tau(  35) = (   0.2505954   0.6280504   2.2032543  )
        36           O   tau(  36) = (   0.7494046   0.6280504   2.2032543  )
        37           O   tau(  37) = (   0.0000000   0.0000000   2.3737815  )
        38           O   tau(  38) = (   0.5000000   0.0000000   2.3739382  )
        39           O   tau(  39) = (   0.0000000   0.4542364   2.4888478  )
        40           O   tau(  40) = (   0.5000000   0.4542364   2.4867600  )

   Crystallographic axes

     site n.     atom                  positions (cryst. coord.)
         1           O   tau(   1) = (  0.0000000  0.5000000  0.2794515  )
         2           O   tau(   2) = (  0.5000000  0.5000000  0.2800560  )
         3           O   tau(   3) = (  0.0000000  0.0000000  0.3127645  )
         4           O   tau(   4) = (  0.5000000  0.0000000  0.3127191  )
         5           Ru  tau(   5) = (  0.2501092  0.0000000  0.3586281  )
         6           Ru  tau(   6) = (  0.7498908  0.0000000  0.3586281  )
         7           O   tau(   7) = (  0.2505954  0.3086746  0.3621350  )
         8           O   tau(   8) = (  0.7494046  0.3086746  0.3621350  )
         9           Ru  tau(   9) = (  0.0000000  0.5000000  0.3543950  )
        10           Ru  tau(  10) = (  0.5000000  0.5000000  0.3548919  )
        11           O   tau(  11) = (  0.2505954  0.6913254  0.3621350  )
        12           O   tau(  12) = (  0.7494046  0.6913254  0.3621350  )
        13           O   tau(  13) = (  0.0000000  0.0000000  0.4148709  )
        14           O   tau(  14) = (  0.5000000  0.0000000  0.4149584  )
        15           O   tau(  15) = (  0.0000000  0.5000000  0.4440430  )
        16           O   tau(  16) = (  0.5000000  0.5000000  0.4477480  )
        17           Ru  tau(  17) = (  0.0000000  0.0000000  0.5000010  )
        18           Ru  tau(  18) = (  0.5000000  0.0000000  0.5000010  )
        19           O   tau(  19) = (  0.2489047  0.1933545  0.5000010  )
        20           O   tau(  20) = (  0.7510953  0.1933545  0.5000010  )
        21           Ru  tau(  21) = (  0.2470123  0.5000000  0.5000010  )
        22           Ru  tau(  22) = (  0.7529877  0.5000000  0.5000010  )
        23           O   tau(  23) = (  0.2489047  0.8066465  0.5000010  )
        24           O   tau(  24) = (  0.7510953  0.8066465  0.5000010  )
        25           O   tau(  25) = (  0.0000000  0.5000000  0.5559580  )
        26           O   tau(  26) = (  0.5000000  0.5000000  0.5522530  )
        27           O   tau(  27) = (  0.0000000  0.0000000  0.5851301  )
        28           O   tau(  28) = (  0.5000000  0.0000000  0.5850426  )
        29           Ru  tau(  29) = (  0.2501092  0.0000000  0.6413739  )
        30           Ru  tau(  30) = (  0.7498908  0.0000000  0.6413739  )
        31           O   tau(  31) = (  0.2505954  0.3086746  0.6378670  )
        32           O   tau(  32) = (  0.7494046  0.3086746  0.6378670  )
        33           Ru  tau(  33) = (  0.0000000  0.5000000  0.6456070  )
        34           Ru  tau(  34) = (  0.5000000  0.5000000  0.6451101  )
        35           O   tau(  35) = (  0.2505954  0.6913254  0.6378670  )
        36           O   tau(  36) = (  0.7494046  0.6913254  0.6378670  )
        37           O   tau(  37) = (  0.0000000  0.0000000  0.6872365  )
        38           O   tau(  38) = (  0.5000000  0.0000000  0.6872819  )
        39           O   tau(  39) = (  0.0000000  0.5000000  0.7205495  )
        40           O   tau(  40) = (  0.5000000  0.5000000  0.7199450  )

     number of k points=     1  Marzari-Vanderbilt smearing, width (Ry)=  0.0300
                       cart. coord. in units 2pi/alat
        k(    1) = (   0.2500000   0.2751871   0.0000000), wk =   2.0000000

                       cryst. coord.
        k(    1) = (   0.2500000   0.2500000   0.0000000), wk =   2.0000000

     Dense  grid:  1124641 G-vectors     FFT dimensions: (  90,  81, 320)

     Smooth grid:   284637 G-vectors     FFT dimensions: (  60,  54, 200)

     Dynamical RAM for                 wfc:       5.86 MB

     Dynamical RAM for     wfc (w. buffer):       5.86 MB

     Dynamical RAM for           str. fact:       1.72 MB

     Dynamical RAM for           local pot:       0.00 MB

     Dynamical RAM for          nlocal pot:      11.94 MB

     Dynamical RAM for                qrad:       3.59 MB

     Dynamical RAM for          rho,v,vnew:       5.24 MB

     Dynamical RAM for               rhoin:       1.75 MB

     Dynamical RAM for            rho*nmix:      13.73 MB

     Dynamical RAM for           G-vectors:       3.33 MB

     Dynamical RAM for          h,s,v(r/c):       2.14 MB

     Dynamical RAM for          <psi|beta>:       1.45 MB

     Dynamical RAM for                 psi:      11.72 MB

     Dynamical RAM for                hpsi:      11.72 MB

     Dynamical RAM for                spsi:      11.72 MB

     Dynamical RAM for      wfcinit/wfcrot:      13.82 MB

     Dynamical RAM for           addusdens:      67.79 MB

     Dynamical RAM for          addusforce:     114.57 MB

     Estimated static dynamical RAM per process >      40.44 MB

     Estimated max dynamical RAM per process >     168.75 MB

     Estimated total dynamical RAM >       3.30 GB

     Check: negative core charge=   -0.000001

     Initial potential from superposition of free atoms

     starting charge     359.9933, renormalised to     360.0000

     add environment contribution to local potential
     Polarization accuracy = 2.8E-12, # of iterations =  22

     negative rho (up, down):  5.981E-05 0.000E+00
     Starting wfcs are  232 randomized atomic wfcs
     Checking if some PAW data can be deallocated... 
       PAW data deallocated on    6 nodes for type:  1

     total cpu time spent up to now is     1045.8 secs

     per-process dynamical memory:   195.5 Mb

     Self-consistent Calculation

     iteration #  1     ecut=    50.00 Ry     beta= 0.70
     Davidson diagonalization with overlap

---- Real-time Memory Report at c_bands before calling an iterative solver
           333 MiB given to the printing process from OS
           190 MiB allocation reported by mallinfo(arena+hblkhd)
        199447 MiB available memory on the node where the printing process lives
------------------
     ethr =  1.00E-02,  avg # of iterations =  2.0

     total cpu time spent up to now is     1393.5 secs

     total energy              =   -3424.57511610 Ry
     estimated scf accuracy    <      11.37663743 Ry
     electrostatic embedding   =      -0.00150856 Ry
     cavitation energy         =       0.01907472 Ry
     PV energy                 =      -0.07951855 Ry
     correction to one-el term =     207.39254869 Ry

     iteration #  2     ecut=    50.00 Ry     beta= 0.70
     Davidson diagonalization with overlap

---- Real-time Memory Report at c_bands before calling an iterative solver
           387 MiB given to the printing process from OS
           184 MiB allocation reported by mallinfo(arena+hblkhd)
        199471 MiB available memory on the node where the printing process lives
------------------
     ethr =  3.16E-03,  avg # of iterations =  2.0

     total cpu time spent up to now is     1704.9 secs

     total energy              =   -3427.09183797 Ry
     estimated scf accuracy    <       2.76367771 Ry
     electrostatic embedding   =      -0.00163321 Ry
     cavitation energy         =       0.01929496 Ry
     PV energy                 =      -0.07868101 Ry
     correction to one-el term =     207.39240207 Ry

     iteration #  3     ecut=    50.00 Ry     beta= 0.70
     Davidson diagonalization with overlap

---- Real-time Memory Report at c_bands before calling an iterative solver
           401 MiB given to the printing process from OS
           184 MiB allocation reported by mallinfo(arena+hblkhd)
        199466 MiB available memory on the node where the printing process lives
------------------
     ethr =  7.68E-04,  avg # of iterations =  1.0

     total cpu time spent up to now is     2061.2 secs

     total energy              =   -3427.40839725 Ry
     estimated scf accuracy    <       0.46612698 Ry
     electrostatic embedding   =      -0.00186154 Ry
     cavitation energy         =       0.01945411 Ry
     PV energy                 =      -0.07896335 Ry
     correction to one-el term =     207.39301688 Ry

     iteration #  4     ecut=    50.00 Ry     beta= 0.70
     Davidson diagonalization with overlap

---- Real-time Memory Report at c_bands before calling an iterative solver
           408 MiB given to the printing process from OS
           184 MiB allocation reported by mallinfo(arena+hblkhd)
        199464 MiB available memory on the node where the printing process lives
------------------
     ethr =  1.29E-04,  avg # of iterations =  2.0

     negative rho (up, down):  1.126E-08 0.000E+00

     total cpu time spent up to now is     2343.6 secs

     total energy              =   -3427.44543279 Ry
     estimated scf accuracy    <       0.17013535 Ry
     electrostatic embedding   =      -0.00183736 Ry
     cavitation energy         =       0.01969374 Ry
     PV energy                 =      -0.07861516 Ry
     correction to one-el term =     207.39269603 Ry

     iteration #  5     ecut=    50.00 Ry     beta= 0.70
     Davidson diagonalization with overlap

---- Real-time Memory Report at c_bands before calling an iterative solver
           415 MiB given to the printing process from OS
           184 MiB allocation reported by mallinfo(arena+hblkhd)
        199457 MiB available memory on the node where the printing process lives
------------------
     ethr =  4.73E-05,  avg # of iterations =  2.0

     add environment contribution to local potential
     Polarization accuracy = 8.4E-12, # of iterations =  33

     total cpu time spent up to now is     2663.2 secs

     total energy              =   -3427.44997721 Ry
     estimated scf accuracy    <       0.03371180 Ry
     electrostatic embedding   =      -0.00187604 Ry
     cavitation energy         =       0.02002687 Ry
     PV energy                 =      -0.07835776 Ry
     correction to one-el term =     207.39256222 Ry

     iteration #  6     ecut=    50.00 Ry     beta= 0.70
     Davidson diagonalization with overlap

---- Real-time Memory Report at c_bands before calling an iterative solver
           423 MiB given to the printing process from OS
           184 MiB allocation reported by mallinfo(arena+hblkhd)
        199454 MiB available memory on the node where the printing process lives
------------------
     ethr =  9.36E-06,  avg # of iterations =  9.0

     add environment contribution to local potential
     Polarization accuracy = 7.6E-12, # of iterations =  35

     total cpu time spent up to now is     3027.8 secs

     total energy              =   -3427.45630497 Ry
     estimated scf accuracy    <       0.03088859 Ry
     electrostatic embedding   =      -0.00912845 Ry
     cavitation energy         =       0.02050551 Ry
     PV energy                 =      -0.07799257 Ry
     correction to one-el term =     192.92135550 Ry

     iteration #  7     ecut=    50.00 Ry     beta= 0.70
     Davidson diagonalization with overlap

---- Real-time Memory Report at c_bands before calling an iterative solver
           440 MiB given to the printing process from OS
           184 MiB allocation reported by mallinfo(arena+hblkhd)
        199423 MiB available memory on the node where the printing process lives
------------------
     ethr =  8.58E-06,  avg # of iterations =  1.0

     add environment contribution to local potential
     Polarization accuracy = 4.7E-12, # of iterations =  37

     total cpu time spent up to now is     3382.5 secs

     total energy              =   -3427.45693459 Ry
     estimated scf accuracy    <       0.00416157 Ry
     electrostatic embedding   =      -0.00972712 Ry
     cavitation energy         =       0.02066299 Ry
     PV energy                 =      -0.07784897 Ry
     correction to one-el term =     192.13698580 Ry

     iteration #  8     ecut=    50.00 Ry     beta= 0.70
     Davidson diagonalization with overlap

---- Real-time Memory Report at c_bands before calling an iterative solver
           445 MiB given to the printing process from OS
           184 MiB allocation reported by mallinfo(arena+hblkhd)
        199427 MiB available memory on the node where the printing process lives
------------------
     ethr =  1.16E-06,  avg # of iterations =  2.0

     add environment contribution to local potential
     Polarization accuracy = 1.9E-12, # of iterations =  38

     total cpu time spent up to now is     3711.4 secs

     total energy              =   -3427.45717293 Ry
     estimated scf accuracy    <       0.00166192 Ry
     electrostatic embedding   =      -0.01041680 Ry
     cavitation energy         =       0.02085810 Ry
     PV energy                 =      -0.07767634 Ry
     correction to one-el term =     191.32662256 Ry

     iteration #  9     ecut=    50.00 Ry     beta= 0.70
     Davidson diagonalization with overlap

---- Real-time Memory Report at c_bands before calling an iterative solver
           450 MiB given to the printing process from OS
           184 MiB allocation reported by mallinfo(arena+hblkhd)
        199423 MiB available memory on the node where the printing process lives
------------------
     ethr =  4.62E-07,  avg # of iterations =  2.0

     add environment contribution to local potential
     Polarization accuracy = 8.4E-12, # of iterations =  38

     total cpu time spent up to now is     4032.9 secs

     total energy              =   -3427.45736320 Ry
     estimated scf accuracy    <       0.00161237 Ry
     electrostatic embedding   =      -0.01102190 Ry
     cavitation energy         =       0.02104264 Ry
     PV energy                 =      -0.07751812 Ry
     correction to one-el term =     190.71472962 Ry

     iteration # 10     ecut=    50.00 Ry     beta= 0.70
     Davidson diagonalization with overlap

---- Real-time Memory Report at c_bands before calling an iterative solver
           454 MiB given to the printing process from OS
           184 MiB allocation reported by mallinfo(arena+hblkhd)
        199435 MiB available memory on the node where the printing process lives
------------------
     ethr =  4.48E-07,  avg # of iterations =  1.0

     add environment contribution to local potential
     Polarization accuracy = 9.7E-12, # of iterations =  38

     total cpu time spent up to now is     4314.8 secs

     total energy              =   -3427.45747821 Ry
     estimated scf accuracy    <       0.00132935 Ry
     electrostatic embedding   =      -0.01149704 Ry
     cavitation energy         =       0.02119953 Ry
     PV energy                 =      -0.07738843 Ry
     correction to one-el term =     190.33832737 Ry

     iteration # 11     ecut=    50.00 Ry     beta= 0.70
     Davidson diagonalization with overlap

---- Real-time Memory Report at c_bands before calling an iterative solver
           457 MiB given to the printing process from OS
           184 MiB allocation reported by mallinfo(arena+hblkhd)
        199437 MiB available memory on the node where the printing process lives
------------------
     ethr =  3.69E-07,  avg # of iterations =  1.0

     add environment contribution to local potential
     Polarization accuracy = 9.9E-12, # of iterations =  38

     total cpu time spent up to now is     4650.7 secs

     total energy              =   -3427.45757361 Ry
     estimated scf accuracy    <       0.00083508 Ry
     electrostatic embedding   =      -0.01139664 Ry
     cavitation energy         =       0.02120107 Ry
     PV energy                 =      -0.07738735 Ry
     correction to one-el term =     190.50416645 Ry

     iteration # 12     ecut=    50.00 Ry     beta= 0.70
     Davidson diagonalization with overlap

---- Real-time Memory Report at c_bands before calling an iterative solver
           460 MiB given to the printing process from OS
           184 MiB allocation reported by mallinfo(arena+hblkhd)
        199434 MiB available memory on the node where the printing process lives
------------------
     ethr =  2.32E-07,  avg # of iterations =  1.0

     negative rho (up, down):  2.224E-07 0.000E+00

     add environment contribution to local potential
     Polarization accuracy = 8.7E-12, # of iterations =  38

     total cpu time spent up to now is     5010.6 secs

     total energy              =   -3427.45770372 Ry
     estimated scf accuracy    <       0.00069429 Ry
     electrostatic embedding   =      -0.01126823 Ry
     cavitation energy         =       0.02120444 Ry
     PV energy                 =      -0.07738151 Ry
     correction to one-el term =     190.73090433 Ry

     iteration # 13     ecut=    50.00 Ry     beta= 0.70
     Davidson diagonalization with overlap

---- Real-time Memory Report at c_bands before calling an iterative solver
           462 MiB given to the printing process from OS
           184 MiB allocation reported by mallinfo(arena+hblkhd)
        199433 MiB available memory on the node where the printing process lives
------------------
     ethr =  1.93E-07,  avg # of iterations =  1.0

     negative rho (up, down):  2.083E-04 0.000E+00

     add environment contribution to local potential
     Polarization accuracy = 6.2E-12, # of iterations =  38

     total cpu time spent up to now is     5315.3 secs

     total energy              =   -3427.45782512 Ry
     estimated scf accuracy    <       0.00045563 Ry
     electrostatic embedding   =      -0.01097185 Ry
     cavitation energy         =       0.02119521 Ry
     PV energy                 =      -0.07738382 Ry
     correction to one-el term =     191.17269743 Ry

     iteration # 14     ecut=    50.00 Ry     beta= 0.70
     Davidson diagonalization with overlap

---- Real-time Memory Report at c_bands before calling an iterative solver
           465 MiB given to the printing process from OS
           184 MiB allocation reported by mallinfo(arena+hblkhd)
        199421 MiB available memory on the node where the printing process lives
------------------
     ethr =  1.27E-07,  avg # of iterations =  1.0

     negative rho (up, down):  1.245E-03 0.000E+00

     add environment contribution to local potential
     Polarization accuracy = 4.9E-12, # of iterations =  38

     total cpu time spent up to now is     5629.0 secs

     total energy              =   -3427.45786736 Ry
     estimated scf accuracy    <       0.00022354 Ry
     electrostatic embedding   =      -0.01056452 Ry
     cavitation energy         =       0.02115213 Ry
     PV energy                 =      -0.07740837 Ry
     correction to one-el term =     191.69543409 Ry

     iteration # 15     ecut=    50.00 Ry     beta= 0.70
     Davidson diagonalization with overlap

---- Real-time Memory Report at c_bands before calling an iterative solver
           473 MiB given to the printing process from OS
           184 MiB allocation reported by mallinfo(arena+hblkhd)
        199413 MiB available memory on the node where the printing process lives
------------------
     ethr =  6.21E-08,  avg # of iterations =  1.0

     negative rho (up, down):  7.538E-04 0.000E+00

     add environment contribution to local potential
     Polarization accuracy = 2.9E-12, # of iterations =  38

     total cpu time spent up to now is     5981.3 secs

     total energy              =   -3427.45787343 Ry
     estimated scf accuracy    <       0.00006939 Ry
     electrostatic embedding   =      -0.01020885 Ry
     cavitation energy         =       0.02110680 Ry
     PV energy                 =      -0.07743371 Ry
     correction to one-el term =     192.03761862 Ry

     iteration # 16     ecut=    50.00 Ry     beta= 0.70
     Davidson diagonalization with overlap

---- Real-time Memory Report at c_bands before calling an iterative solver
           476 MiB given to the printing process from OS
           184 MiB allocation reported by mallinfo(arena+hblkhd)
        199404 MiB available memory on the node where the printing process lives
------------------
     ethr =  1.93E-08,  avg # of iterations =  1.0

     negative rho (up, down):  8.467E-04 0.000E+00

     add environment contribution to local potential
     Polarization accuracy = 2.8E-12, # of iterations =  38

     total cpu time spent up to now is     6355.1 secs

     total energy              =   -3427.45787910 Ry
     estimated scf accuracy    <       0.00004826 Ry
     electrostatic embedding   =      -0.01008624 Ry
     cavitation energy         =       0.02109302 Ry
     PV energy                 =      -0.07743743 Ry
     correction to one-el term =     192.05002053 Ry

     iteration # 17     ecut=    50.00 Ry     beta= 0.70
     Davidson diagonalization with overlap

---- Real-time Memory Report at c_bands before calling an iterative solver
           478 MiB given to the printing process from OS
           184 MiB allocation reported by mallinfo(arena+hblkhd)
        199392 MiB available memory on the node where the printing process lives
------------------
     ethr =  1.34E-08,  avg # of iterations =  1.0

     negative rho (up, down):  2.666E-04 0.000E+00

     add environment contribution to local potential
     Polarization accuracy = 2.8E-12, # of iterations =  38

     total cpu time spent up to now is     6663.4 secs

     total energy              =   -3427.45787986 Ry
     estimated scf accuracy    <       0.00000660 Ry
     electrostatic embedding   =      -0.01003624 Ry
     cavitation energy         =       0.02109314 Ry
     PV energy                 =      -0.07743076 Ry
     correction to one-el term =     192.04966677 Ry

     iteration # 18     ecut=    50.00 Ry     beta= 0.70
     Davidson diagonalization with overlap

---- Real-time Memory Report at c_bands before calling an iterative solver
           480 MiB given to the printing process from OS
           184 MiB allocation reported by mallinfo(arena+hblkhd)
        199368 MiB available memory on the node where the printing process lives
------------------
     ethr =  1.83E-09,  avg # of iterations =  2.0

     negative rho (up, down):  2.515E-04 0.000E+00

     add environment contribution to local potential
     Polarization accuracy = 2.9E-12, # of iterations =  38

     total cpu time spent up to now is     6950.6 secs

     total energy              =   -3427.45788042 Ry
     estimated scf accuracy    <       0.00000488 Ry
     electrostatic embedding   =      -0.01006701 Ry
     cavitation energy         =       0.02110492 Ry
     PV energy                 =      -0.07741603 Ry
     correction to one-el term =     191.95502172 Ry

     iteration # 19     ecut=    50.00 Ry     beta= 0.70
     Davidson diagonalization with overlap

---- Real-time Memory Report at c_bands before calling an iterative solver
           483 MiB given to the printing process from OS
           184 MiB allocation reported by mallinfo(arena+hblkhd)
        199360 MiB available memory on the node where the printing process lives
------------------
     ethr =  1.35E-09,  avg # of iterations =  1.0

     negative rho (up, down):  2.133E-04 0.000E+00

     add environment contribution to local potential
     Polarization accuracy = 2.6E-12, # of iterations =  38

     total cpu time spent up to now is     7313.5 secs

     total energy              =   -3427.45788148 Ry
     estimated scf accuracy    <       0.00000047 Ry
     electrostatic embedding   =      -0.01003261 Ry
     cavitation energy         =       0.02110476 Ry
     PV energy                 =      -0.07741111 Ry
     correction to one-el term =     191.94796328 Ry

     iteration # 20     ecut=    50.00 Ry     beta= 0.70
     Davidson diagonalization with overlap

---- Real-time Memory Report at c_bands before calling an iterative solver
           486 MiB given to the printing process from OS
           184 MiB allocation reported by mallinfo(arena+hblkhd)
        199364 MiB available memory on the node where the printing process lives
------------------
     ethr =  1.30E-10,  avg # of iterations =  2.0

     negative rho (up, down):  1.932E-04 0.000E+00

     add environment contribution to local potential
     Polarization accuracy = 2.6E-12, # of iterations =  38

     total cpu time spent up to now is     7690.1 secs

     total energy              =   -3427.45788187 Ry
     estimated scf accuracy    <       0.00000058 Ry
     electrostatic embedding   =      -0.01003058 Ry
     cavitation energy         =       0.02110448 Ry
     PV energy                 =      -0.07741075 Ry
     correction to one-el term =     191.94376804 Ry

     iteration # 21     ecut=    50.00 Ry     beta= 0.70
     Davidson diagonalization with overlap

---- Real-time Memory Report at c_bands before calling an iterative solver
           489 MiB given to the printing process from OS
           184 MiB allocation reported by mallinfo(arena+hblkhd)
        199353 MiB available memory on the node where the printing process lives
------------------
     ethr =  1.30E-10,  avg # of iterations =  1.0

     negative rho (up, down):  2.021E-04 0.000E+00

     add environment contribution to local potential
     Polarization accuracy = 2.5E-12, # of iterations =  38

     total cpu time spent up to now is     8025.6 secs

     total energy              =   -3427.45788214 Ry
     estimated scf accuracy    <       0.00000018 Ry
     electrostatic embedding   =      -0.01003823 Ry
     cavitation energy         =       0.02110604 Ry
     PV energy                 =      -0.07740929 Ry
     correction to one-el term =     191.93555259 Ry

     iteration # 22     ecut=    50.00 Ry     beta= 0.70
     Davidson diagonalization with overlap

---- Real-time Memory Report at c_bands before calling an iterative solver
           491 MiB given to the printing process from OS
           184 MiB allocation reported by mallinfo(arena+hblkhd)
        199341 MiB available memory on the node where the printing process lives
------------------
     ethr =  4.99E-11,  avg # of iterations =  2.0

     negative rho (up, down):  1.965E-04 0.000E+00

     add environment contribution to local potential
     Polarization accuracy = 2.4E-12, # of iterations =  38

     total cpu time spent up to now is     8356.8 secs

     total energy              =   -3427.45788243 Ry
     estimated scf accuracy    <       0.00000017 Ry
     electrostatic embedding   =      -0.01003824 Ry
     cavitation energy         =       0.02110602 Ry
     PV energy                 =      -0.07740931 Ry
     correction to one-el term =     191.93683761 Ry

     iteration # 23     ecut=    50.00 Ry     beta= 0.70
     Davidson diagonalization with overlap

---- Real-time Memory Report at c_bands before calling an iterative solver
           492 MiB given to the printing process from OS
           184 MiB allocation reported by mallinfo(arena+hblkhd)
        199332 MiB available memory on the node where the printing process lives
------------------
     ethr =  4.82E-11,  avg # of iterations =  1.0

     negative rho (up, down):  1.860E-04 0.000E+00

     add environment contribution to local potential
     Polarization accuracy = 4.9E-12, # of iterations =  38

     total cpu time spent up to now is     8697.6 secs

     total energy              =   -3427.45788283 Ry
     estimated scf accuracy    <       0.00000016 Ry
     electrostatic embedding   =      -0.01003891 Ry
     cavitation energy         =       0.02110605 Ry
     PV energy                 =      -0.07740932 Ry
     correction to one-el term =     191.93610172 Ry

     iteration # 24     ecut=    50.00 Ry     beta= 0.70
     Davidson diagonalization with overlap

---- Real-time Memory Report at c_bands before calling an iterative solver
           494 MiB given to the printing process from OS
           184 MiB allocation reported by mallinfo(arena+hblkhd)
        199322 MiB available memory on the node where the printing process lives
------------------
     ethr =  4.32E-11,  avg # of iterations =  1.0

     negative rho (up, down):  1.912E-04 0.000E+00

     add environment contribution to local potential
     Polarization accuracy = 2.8E-12, # of iterations =  39

     total cpu time spent up to now is     9029.6 secs

     total energy              =   -3427.45788418 Ry
     estimated scf accuracy    <       0.00000015 Ry
     electrostatic embedding   =      -0.01003853 Ry
     cavitation energy         =       0.02110607 Ry
     PV energy                 =      -0.07740928 Ry
     correction to one-el term =     191.93488906 Ry

     iteration # 25     ecut=    50.00 Ry     beta= 0.70
     Davidson diagonalization with overlap

---- Real-time Memory Report at c_bands before calling an iterative solver
           495 MiB given to the printing process from OS
           184 MiB allocation reported by mallinfo(arena+hblkhd)
        199318 MiB available memory on the node where the printing process lives
------------------
     ethr =  4.18E-11,  avg # of iterations =  1.0

     negative rho (up, down):  1.812E-04 0.000E+00

     add environment contribution to local potential
     Polarization accuracy = 2.5E-12, # of iterations =  38

     total cpu time spent up to now is     9380.1 secs

     total energy              =   -3427.45788472 Ry
     estimated scf accuracy    <       0.00000014 Ry
     electrostatic embedding   =      -0.01003895 Ry
     cavitation energy         =       0.02110591 Ry
     PV energy                 =      -0.07740971 Ry
     correction to one-el term =     191.93658372 Ry

     iteration # 26     ecut=    50.00 Ry     beta= 0.70
     Davidson diagonalization with overlap

---- Real-time Memory Report at c_bands before calling an iterative solver
           496 MiB given to the printing process from OS
           184 MiB allocation reported by mallinfo(arena+hblkhd)
        199318 MiB available memory on the node where the printing process lives
------------------
     ethr =  3.85E-11,  avg # of iterations =  3.0

     negative rho (up, down):  1.762E-04 0.000E+00

     add environment contribution to local potential
     Polarization accuracy = 2.6E-12, # of iterations =  38

     total cpu time spent up to now is     9728.0 secs

     total energy              =   -3427.45788952 Ry
     estimated scf accuracy    <       0.00000013 Ry
     electrostatic embedding   =      -0.01003787 Ry
     cavitation energy         =       0.02110570 Ry
     PV energy                 =      -0.07741023 Ry
     correction to one-el term =     191.93705985 Ry

     iteration # 27     ecut=    50.00 Ry     beta= 0.70
     Davidson diagonalization with overlap

---- Real-time Memory Report at c_bands before calling an iterative solver
           500 MiB given to the printing process from OS
           184 MiB allocation reported by mallinfo(arena+hblkhd)
        199318 MiB available memory on the node where the printing process lives
------------------
     ethr =  3.48E-11,  avg # of iterations =  3.0

     negative rho (up, down):  1.755E-04 0.000E+00

     add environment contribution to local potential
     Polarization accuracy = 3.0E-12, # of iterations =  39

     total cpu time spent up to now is    10061.6 secs

     total energy              =   -3427.45789618 Ry
     estimated scf accuracy    <       0.00000009 Ry
     electrostatic embedding   =      -0.01003751 Ry
     cavitation energy         =       0.02110560 Ry
     PV energy                 =      -0.07741061 Ry
     correction to one-el term =     191.93760890 Ry

     iteration # 28     ecut=    50.00 Ry     beta= 0.70
     Davidson diagonalization with overlap

---- Real-time Memory Report at c_bands before calling an iterative solver
           502 MiB given to the printing process from OS
           184 MiB allocation reported by mallinfo(arena+hblkhd)
        199312 MiB available memory on the node where the printing process lives
------------------
     ethr =  2.52E-11,  avg # of iterations =  3.0

     negative rho (up, down):  1.756E-04 0.000E+00

     add environment contribution to local potential
     Polarization accuracy = 2.7E-12, # of iterations =  38

     total cpu time spent up to now is    10417.5 secs

     total energy              =   -3427.45790050 Ry
     estimated scf accuracy    <       0.00000007 Ry
     electrostatic embedding   =      -0.01003896 Ry
     cavitation energy         =       0.02110578 Ry
     PV energy                 =      -0.07741051 Ry
     correction to one-el term =     191.93671084 Ry

     iteration # 29     ecut=    50.00 Ry     beta= 0.70
     Davidson diagonalization with overlap

---- Real-time Memory Report at c_bands before calling an iterative solver
           504 MiB given to the printing process from OS
           184 MiB allocation reported by mallinfo(arena+hblkhd)
        199290 MiB available memory on the node where the printing process lives
------------------
     ethr =  2.04E-11,  avg # of iterations =  6.0

     negative rho (up, down):  1.801E-04 0.000E+00

     add environment contribution to local potential
     Polarization accuracy = 2.3E-12, # of iterations =  38

     total cpu time spent up to now is    10662.0 secs

     total energy              =   -3427.45791342 Ry
     estimated scf accuracy    <       0.00000004 Ry
     electrostatic embedding   =      -0.01003843 Ry
     cavitation energy         =       0.02110557 Ry
     PV energy                 =      -0.07741094 Ry
     correction to one-el term =     191.93813221 Ry

     iteration # 30     ecut=    50.00 Ry     beta= 0.70
     Davidson diagonalization with overlap

---- Real-time Memory Report at c_bands before calling an iterative solver
           507 MiB given to the printing process from OS
           184 MiB allocation reported by mallinfo(arena+hblkhd)
        199301 MiB available memory on the node where the printing process lives
------------------
     ethr =  1.07E-11,  avg # of iterations =  2.0

     negative rho (up, down):  1.816E-04 0.000E+00

     add environment contribution to local potential
     Polarization accuracy = 2.8E-12, # of iterations =  38

     total cpu time spent up to now is    10982.4 secs

     total energy              =   -3427.45791869 Ry
     estimated scf accuracy    <       0.00000001 Ry
     electrostatic embedding   =      -0.01003972 Ry
     cavitation energy         =       0.02110580 Ry
     PV energy                 =      -0.07741037 Ry
     correction to one-el term =     191.93680706 Ry

     iteration # 31     ecut=    50.00 Ry     beta= 0.70
     Davidson diagonalization with overlap

---- Real-time Memory Report at c_bands before calling an iterative solver
           508 MiB given to the printing process from OS
           184 MiB allocation reported by mallinfo(arena+hblkhd)
        199304 MiB available memory on the node where the printing process lives
------------------
     ethr =  3.72E-12,  avg # of iterations =  5.0

     negative rho (up, down):  1.816E-04 0.000E+00

     add environment contribution to local potential
     Polarization accuracy = 2.3E-12, # of iterations =  38

     total cpu time spent up to now is    11270.1 secs

     total energy              =   -3427.45792168 Ry
     estimated scf accuracy    <          9.4E-09 Ry
     electrostatic embedding   =      -0.01004007 Ry
     cavitation energy         =       0.02110593 Ry
     PV energy                 =      -0.07740996 Ry
     correction to one-el term =     191.93584623 Ry

     iteration # 32     ecut=    50.00 Ry     beta= 0.70
     Davidson diagonalization with overlap

---- Real-time Memory Report at c_bands before calling an iterative solver
           509 MiB given to the printing process from OS
           184 MiB allocation reported by mallinfo(arena+hblkhd)
        199301 MiB available memory on the node where the printing process lives
------------------
     ethr =  2.61E-12,  avg # of iterations =  2.0

     negative rho (up, down):  1.832E-04 0.000E+00

     add environment contribution to local potential
     Polarization accuracy = 2.3E-12, # of iterations =  38

     total cpu time spent up to now is    11588.6 secs

     total energy              =   -3427.45792244 Ry
     estimated scf accuracy    <          4.3E-09 Ry
     electrostatic embedding   =      -0.01003993 Ry
     cavitation energy         =       0.02110598 Ry
     PV energy                 =      -0.07740972 Ry
     correction to one-el term =     191.93524815 Ry

     iteration # 33     ecut=    50.00 Ry     beta= 0.70
     Davidson diagonalization with overlap

---- Real-time Memory Report at c_bands before calling an iterative solver
           510 MiB given to the printing process from OS
           184 MiB allocation reported by mallinfo(arena+hblkhd)
        199302 MiB available memory on the node where the printing process lives
------------------
     ethr =  1.19E-12,  avg # of iterations =  1.0

     negative rho (up, down):  1.850E-04 0.000E+00

     add environment contribution to local potential
     Polarization accuracy = 2.2E-12, # of iterations =  38

     total cpu time spent up to now is    11924.2 secs

     total energy              =   -3427.45792230 Ry
     estimated scf accuracy    <          3.2E-09 Ry
     electrostatic embedding   =      -0.01003972 Ry
     cavitation energy         =       0.02110598 Ry
     PV energy                 =      -0.07740971 Ry
     correction to one-el term =     191.93543946 Ry

     iteration # 34     ecut=    50.00 Ry     beta= 0.70
     Davidson diagonalization with overlap

---- Real-time Memory Report at c_bands before calling an iterative solver
           511 MiB given to the printing process from OS
           184 MiB allocation reported by mallinfo(arena+hblkhd)
        199300 MiB available memory on the node where the printing process lives
------------------
     ethr =  8.83E-13,  avg # of iterations =  2.0

     negative rho (up, down):  1.899E-04 0.000E+00

     the potential shift due to the Gaussian-smeared nuclei is    -1.2914 ev

     total cpu time spent up to now is    12264.7 secs

     End of self-consistent calculation

          k = 0.2500 0.2752 0.0000 ( 35580 PWs)   bands (ev):

   -79.7726 -79.7569 -79.7564 -79.7408 -79.3625 -79.3588 -79.3467 -79.3430
   -78.7798 -78.7762 -78.6909 -78.6773 -50.3369 -50.3208 -50.3155 -50.2994
   -49.7293 -49.7132 -49.6473 -49.6312 -49.6025 -49.5900 -49.5866 -49.5742
   -49.3773 -49.3615 -49.3387 -49.3226 -49.3181 -49.3021 -49.2898 -49.2740
   -49.2189 -49.2128 -49.2084 -49.2061 -49.2031 -49.1905 -48.9619 -48.9496
   -48.6868 -48.6706 -48.6079 -48.5918 -48.5878 -48.5761 -48.5029 -48.4724
   -25.3836 -25.2903 -25.1001 -24.9028 -24.8667 -24.7445 -24.4169 -24.2235
   -24.1850 -24.1598 -24.1169 -24.1072 -23.9815 -23.9364 -23.9170 -23.8433
   -23.8231 -23.8038 -23.7119 -23.6617 -23.4332 -23.2965 -23.2599 -23.1792
   -23.1322 -23.1198 -23.0339 -22.8918 -13.6601 -13.6447 -13.4047 -13.1085
   -13.0849 -12.8927 -12.7722 -12.7254 -12.6937 -12.6290 -12.6082 -12.5110
   -12.4836 -12.2662 -12.2617 -12.1886 -12.1572 -12.0650 -12.0543 -12.0230
   -11.7191 -11.6578 -11.5981 -11.5426 -11.4897 -11.3840 -11.3629 -11.0738
   -11.0138 -10.9364 -10.8964 -10.8543 -10.7524 -10.7441 -10.6205 -10.5701
   -10.5315 -10.5142 -10.4309 -10.3792 -10.1697 -10.1485 -10.0310  -9.8981
    -9.8761  -9.7782  -9.7083  -9.6607  -9.5843  -9.5669  -9.5251  -9.4985
    -9.4892  -9.4645  -9.3499  -9.3098  -9.2558  -9.1275  -9.1094  -9.0480
    -9.0063  -8.8657  -8.7245  -8.6686  -8.5696  -8.5424  -8.4349  -8.3884
    -8.3561  -8.2258  -8.2217  -8.1018  -8.0384  -7.9716  -7.9411  -7.8684
    -7.7640  -7.7517  -7.6637  -7.5660  -7.5222  -7.4514  -7.3446  -7.2063
    -6.6560  -6.6370  -6.3365  -6.2890  -6.2371  -6.1615  -6.1370  -6.0810
    -5.9983  -5.9682  -5.9657  -5.9489  -5.8621  -5.8612  -5.7800  -5.6053
    -5.5310  -5.4966  -5.4424  -5.3293  -5.2449  -5.0911  -5.0593  -5.0113
    -4.9949  -4.8658  -4.8245  -4.8044  -4.5905  -4.5473  -4.4989  -4.4951
    -4.4692  -4.4429  -4.1030  -4.0152  -3.7668  -3.4539  -3.3917  -3.0905
    -3.0515  -2.9476  -2.0698  -1.9854  -1.9030  -1.7666  -1.7100  -1.5125
    -1.3371  -1.2915  -1.2261  -1.1388  -0.8357  -0.7873  -0.7139  -0.3702

     occupation numbers 
     1.0000   1.0000   1.0000   1.0000   1.0000   1.0000   1.0000   1.0000
     1.0000   1.0000   1.0000   1.0000   1.0000   1.0000   1.0000   1.0000
     1.0000   1.0000   1.0000   1.0000   1.0000   1.0000   1.0000   1.0000
     1.0000   1.0000   1.0000   1.0000   1.0000   1.0000   1.0000   1.0000
     1.0000   1.0000   1.0000   1.0000   1.0000   1.0000   1.0000   1.0000
     1.0000   1.0000   1.0000   1.0000   1.0000   1.0000   1.0000   1.0000
     1.0000   1.0000   1.0000   1.0000   1.0000   1.0000   1.0000   1.0000
     1.0000   1.0000   1.0000   1.0000   1.0000   1.0000   1.0000   1.0000
     1.0000   1.0000   1.0000   1.0000   1.0000   1.0000   1.0000   1.0000
     1.0000   1.0000   1.0000   1.0000   1.0000   1.0000   1.0000   1.0000
     1.0000   1.0000   1.0000   1.0000   1.0000   1.0000   1.0000   1.0000
     1.0000   1.0000   1.0000   1.0000   1.0000   1.0000   1.0000   1.0000
     1.0000   1.0000   1.0000   1.0000   1.0000   1.0000   1.0000   1.0000
     1.0000   1.0000   1.0000   1.0000   1.0000   1.0000   1.0000   1.0000
     1.0000   1.0000   1.0000   1.0000   1.0000   1.0000   1.0000   1.0000
     1.0000   1.0000   1.0000   1.0000   1.0000   1.0000   1.0000   1.0000
     1.0000   1.0000   1.0000   1.0000   1.0000   1.0000   1.0000   1.0000
     1.0000   1.0000   1.0000   1.0000   1.0000   1.0000   1.0000   1.0000
     1.0000   1.0000   1.0000   1.0000   1.0000   1.0000   1.0000   1.0000
     1.0000   1.0000   1.0000   1.0000   1.0000   1.0000   1.0000   1.0000
     1.0003   1.0004   1.0094   1.0137   1.0201   1.0326   1.0375   1.0498
     1.0684   1.0743   1.0748   1.0776   1.0828   1.0828   1.0654   0.9173
     0.8070   0.7488   0.6514   0.4456   0.3087   0.1301   0.1054   0.0750
     0.0664   0.0228   0.0156   0.0129   0.0012   0.0007   0.0004   0.0004
     0.0003   0.0002   0.0000   0.0000   0.0000   0.0000   0.0000   0.0000
     0.0000   0.0000   0.0000   0.0000   0.0000   0.0000   0.0000   0.0000
     0.0000   0.0000   0.0000   0.0000   0.0000   0.0000   0.0000   0.0000

     the Fermi energy is    -5.3030 ev

!    total energy              =   -3427.45792287 Ry
     estimated scf accuracy    <          8.0E-10 Ry
     smearing contrib. (-TS)   =       0.02966726 Ry
     internal energy E=F+TS    =   -3427.48759013 Ry

     The total energy is F=E-TS. E is the sum of the following terms:
     one-electron contribution =  -27086.04744377 Ry
     hartree contribution      =   13506.17077844 Ry
     xc contribution           =    -442.85589113 Ry
     ewald contribution        =   10670.04157848 Ry
     one-center paw contrib.   =    -266.66564794 Ry
      -> PAW hartree energy AE =      50.15312967 Ry
      -> PAW hartree energy PS =     -49.93650981 Ry
      -> PAW xc energy AE      =     -33.04489372 Ry
      -> PAW xc energy PS      =      13.74621127 Ry
      -> total E_H with PAW    =   13506.38739830 Ry
      -> total E_XC with PAW   =    -462.15457358 Ry
     electrostatic embedding   =      -0.01003918 Ry
     cavitation energy         =       0.02110599 Ry
     PV energy                 =      -0.07740954 Ry
     correction to one-el term =     191.93537852 Ry

     WARNING: you are using the parabolic pbc correction;
              the potential shift above must be added to 
              band and Fermi energies.

     convergence has been achieved in  34 iterations

     negative rho (up, down):  1.899E-04 0.000E+00
     The dielectric solvent contribution to forces
     atom    1 type  1   force =     0.00000001   -0.00000004    0.05538780
     atom    2 type  1   force =    -0.00000001   -0.00000003    0.05352271
     atom    3 type  1   force =     0.00000000    0.00000003    0.01729159
     atom    4 type  1   force =    -0.00000000    0.00000002    0.01725064
     atom    5 type  2   force =     0.00007132    0.00000003   -0.01770916
     atom    6 type  2   force =    -0.00007132    0.00000003   -0.01770915
     atom    7 type  1   force =     0.00003198   -0.00489616   -0.00200131
     atom    8 type  1   force =    -0.00003198   -0.00489616   -0.00200130
     atom    9 type  2   force =     0.00000000   -0.00000003    0.02047121
     atom   10 type  2   force =    -0.00000000   -0.00000003    0.01971392
     atom   11 type  1   force =     0.00003198    0.00489615   -0.00200129
     atom   12 type  1   force =    -0.00003198    0.00489615   -0.00200128
     atom   13 type  1   force =     0.00000000    0.00000000   -0.00085506
     atom   14 type  1   force =    -0.00000000    0.00000000   -0.00087408
     atom   15 type  1   force =     0.00000000   -0.00000000    0.00043352
     atom   16 type  1   force =    -0.00000000   -0.00000000    0.00035568
     atom   17 type  2   force =     0.00000000    0.00000000   -0.00043183
     atom   18 type  2   force =    -0.00000000    0.00000000   -0.00043183
     atom   19 type  1   force =     0.00000464   -0.00026983   -0.00016202
     atom   20 type  1   force =    -0.00000464   -0.00026983   -0.00016202
     atom   21 type  2   force =     0.00001433   -0.00000000   -0.00043256
     atom   22 type  2   force =    -0.00001433   -0.00000000   -0.00043256
     atom   23 type  1   force =     0.00000464    0.00026983   -0.00016202
     atom   24 type  1   force =    -0.00000464    0.00026983   -0.00016202
     atom   25 type  1   force =     0.00000000   -0.00000000   -0.00075826
     atom   26 type  1   force =    -0.00000000   -0.00000000   -0.00068038
     atom   27 type  1   force =     0.00000000    0.00000000    0.00053177
     atom   28 type  1   force =    -0.00000000    0.00000000    0.00055079
     atom   29 type  2   force =     0.00007132    0.00000003    0.01686040
     atom   30 type  2   force =    -0.00007132    0.00000003    0.01686041
     atom   31 type  1   force =     0.00003198   -0.00490029    0.00167761
     atom   32 type  1   force =    -0.00003198   -0.00490029    0.00167761
     atom   33 type  2   force =    -0.00000000   -0.00000003   -0.02135269
     atom   34 type  2   force =     0.00000000   -0.00000003   -0.02059510
     atom   35 type  1   force =     0.00003198    0.00490028    0.00167760
     atom   36 type  1   force =    -0.00003198    0.00490028    0.00167760
     atom   37 type  1   force =    -0.00000000    0.00000003   -0.01762140
     atom   38 type  1   force =     0.00000000    0.00000002   -0.01758050
     atom   39 type  1   force =    -0.00000000   -0.00000004   -0.05576044
     atom   40 type  1   force =     0.00000000   -0.00000003   -0.05389466
 

     Forces acting on atoms (cartesian axes, Ry/au):

     atom    1 type  1   force =     0.00000000    0.00000000   -0.01262490
     atom    2 type  1   force =     0.00000000    0.00000000   -0.01506917
     atom    3 type  1   force =     0.00000000    0.00000000   -0.00553633
     atom    4 type  1   force =     0.00000000    0.00000000   -0.00524442
     atom    5 type  2   force =    -0.00055220   -0.00000000   -0.00419378
     atom    6 type  2   force =     0.00055220    0.00000000   -0.00419378
     atom    7 type  1   force =    -0.00054396    0.05186062    0.00379574
     atom    8 type  1   force =     0.00054396    0.05186062    0.00379574
     atom    9 type  2   force =     0.00000000    0.00000000    0.01745058
     atom   10 type  2   force =     0.00000000    0.00000000    0.02368685
     atom   11 type  1   force =    -0.00054396   -0.05186062    0.00379574
     atom   12 type  1   force =     0.00054396   -0.05186062    0.00379574
     atom   13 type  1   force =     0.00000000    0.00000000   -0.00636311
     atom   14 type  1   force =     0.00000000    0.00000000   -0.00673860
     atom   15 type  1   force =     0.00000000    0.00000000    0.00942072
     atom   16 type  1   force =     0.00000000    0.00000000   -0.01634459
     atom   17 type  2   force =     0.00000000    0.00000000    0.00000000
     atom   18 type  2   force =     0.00000000    0.00000000    0.00000000
     atom   19 type  1   force =     0.00326777   -0.06471656    0.00000000
     atom   20 type  1   force =    -0.00326777   -0.06471656    0.00000000
     atom   21 type  2   force =     0.01342028    0.00000000    0.00000000
     atom   22 type  2   force =    -0.01342028    0.00000000    0.00000000
     atom   23 type  1   force =     0.00326777    0.06471656    0.00000000
     atom   24 type  1   force =    -0.00326777    0.06471656    0.00000000
     atom   25 type  1   force =     0.00000000    0.00000000   -0.00942072
     atom   26 type  1   force =     0.00000000    0.00000000    0.01634459
     atom   27 type  1   force =     0.00000000    0.00000000    0.00636311
     atom   28 type  1   force =     0.00000000    0.00000000    0.00673860
     atom   29 type  2   force =    -0.00055220    0.00000000    0.00419378
     atom   30 type  2   force =     0.00055220   -0.00000000    0.00419378
     atom   31 type  1   force =    -0.00054396    0.05186062   -0.00379574
     atom   32 type  1   force =     0.00054396    0.05186062   -0.00379574
     atom   33 type  2   force =     0.00000000    0.00000000   -0.01745058
     atom   34 type  2   force =     0.00000000    0.00000000   -0.02368685
     atom   35 type  1   force =    -0.00054396   -0.05186062   -0.00379574
     atom   36 type  1   force =     0.00054396   -0.05186062   -0.00379574
     atom   37 type  1   force =     0.00000000    0.00000000    0.00553633
     atom   38 type  1   force =     0.00000000    0.00000000    0.00524442
     atom   39 type  1   force =     0.00000000    0.00000000    0.01262490
     atom   40 type  1   force =     0.00000000    0.00000000    0.01506917
     The non-local contrib.  to forces
     atom    1 type  1   force =     0.00000000    0.00000000    1.39920396
     atom    2 type  1   force =     0.00000000    0.00000000    1.41999834
     atom    3 type  1   force =     0.00000000    0.00000000    1.07918769
     atom    4 type  1   force =     0.00000000    0.00000000    1.08114557
     atom    5 type  2   force =    -0.00001751    0.00000000   -0.06109920
     atom    6 type  2   force =     0.00001751    0.00000000   -0.06109920
     atom    7 type  1   force =     0.00289291   -0.03411812   -0.15773403
     atom    8 type  1   force =    -0.00289291   -0.03411812   -0.15773403
     atom    9 type  2   force =     0.00000000    0.00000000   -0.11416568
     atom   10 type  2   force =     0.00000000    0.00000000   -0.10305713
     atom   11 type  1   force =     0.00289291    0.03411812   -0.15773403
     atom   12 type  1   force =    -0.00289291    0.03411812   -0.15773403
     atom   13 type  1   force =     0.00000000    0.00000000    0.07532116
     atom   14 type  1   force =     0.00000000    0.00000000    0.07270082
     atom   15 type  1   force =     0.00000000    0.00000000    0.21794434
     atom   16 type  1   force =     0.00000000    0.00000000    0.19877132
     atom   17 type  2   force =     0.00000000    0.00000000    0.00000000
     atom   18 type  2   force =     0.00000000    0.00000000    0.00000000
     atom   19 type  1   force =    -0.01922141    0.05282813    0.00000000
     atom   20 type  1   force =     0.01922141    0.05282813    0.00000000
     atom   21 type  2   force =     0.00300980    0.00000000    0.00000000
     atom   22 type  2   force =    -0.00300980    0.00000000    0.00000000
     atom   23 type  1   force =    -0.01922141   -0.05282813    0.00000000
     atom   24 type  1   force =     0.01922141   -0.05282813    0.00000000
     atom   25 type  1   force =     0.00000000    0.00000000   -0.21794434
     atom   26 type  1   force =     0.00000000    0.00000000   -0.19877132
     atom   27 type  1   force =     0.00000000    0.00000000   -0.07532116
     atom   28 type  1   force =     0.00000000    0.00000000   -0.07270082
     atom   29 type  2   force =    -0.00001751   -0.00000000    0.06109920
     atom   30 type  2   force =     0.00001751    0.00000000    0.06109920
     atom   31 type  1   force =     0.00289291   -0.03411812    0.15773403
     atom   32 type  1   force =    -0.00289291   -0.03411812    0.15773403
     atom   33 type  2   force =     0.00000000    0.00000000    0.11416568
     atom   34 type  2   force =     0.00000000    0.00000000    0.10305713
     atom   35 type  1   force =     0.00289291    0.03411812    0.15773403
     atom   36 type  1   force =    -0.00289291    0.03411812    0.15773403
     atom   37 type  1   force =     0.00000000    0.00000000   -1.07918769
     atom   38 type  1   force =     0.00000000    0.00000000   -1.08114557
     atom   39 type  1   force =     0.00000000    0.00000000   -1.39920396
     atom   40 type  1   force =     0.00000000    0.00000000   -1.41999834
     The ionic contribution  to forces
     atom    1 type  1   force =     0.00000000    0.00000015 -104.55863620
     atom    2 type  1   force =    -0.00000000    0.00000015 -104.60548435
     atom    3 type  1   force =     0.00000000   -0.00000031  -96.15259685
     atom    4 type  1   force =    -0.00000000   -0.00000031  -96.18207358
     atom    5 type  2   force =     0.01280827   -0.00000219 -178.94165267
     atom    6 type  2   force =    -0.01280827   -0.00000219 -178.94165267
     atom    7 type  1   force =     0.01107774    0.38744766  -63.47068705
     atom    8 type  1   force =    -0.01107774    0.38744766  -63.47068705
     atom    9 type  2   force =     0.00000000    0.00000256 -178.44896497
     atom   10 type  2   force =     0.00000000    0.00000257 -176.67658974
     atom   11 type  1   force =     0.01107773   -0.38744714  -63.47068467
     atom   12 type  1   force =    -0.01107773   -0.38744714  -63.47068467
     atom   13 type  1   force =    -0.00000000   -0.00000173  -39.49166577
     atom   14 type  1   force =    -0.00000000   -0.00000174  -39.40209926
     atom   15 type  1   force =    -0.00000000    0.00000898  -28.06348674
     atom   16 type  1   force =    -0.00000000    0.00000952  -27.61064196
     atom   17 type  2   force =    -0.00000000    0.00001309   -0.00026947
     atom   18 type  2   force =     0.00000000    0.00001211   -0.00026742
     atom   19 type  1   force =     0.21618745   -0.63365971    0.00000947
     atom   20 type  1   force =    -0.21618745   -0.63365971    0.00000947
     atom   21 type  2   force =    -0.33414126    0.00012119    0.00001811
     atom   22 type  2   force =     0.33414126    0.00012119    0.00001811
     atom   23 type  1   force =     0.21618813    0.63350940    0.00000947
     atom   24 type  1   force =    -0.21618813    0.63350940    0.00000947
     atom   25 type  1   force =     0.00000000    0.00000898   28.06360058
     atom   26 type  1   force =    -0.00000000    0.00000952   27.61068864
     atom   27 type  1   force =    -0.00000000   -0.00000173   39.49182321
     atom   28 type  1   force =     0.00000000   -0.00000174   39.40225699
     atom   29 type  2   force =     0.01280779   -0.00000219  178.94174471
     atom   30 type  2   force =    -0.01280779   -0.00000219  178.94174471
     atom   31 type  1   force =     0.01107599    0.38744828   63.47071559
     atom   32 type  1   force =    -0.01107599    0.38744828   63.47071559
     atom   33 type  2   force =    -0.00000000    0.00000256  178.44834421
     atom   34 type  2   force =    -0.00000000    0.00000257  176.67599615
     atom   35 type  1   force =     0.01107598   -0.38744776   63.47071321
     atom   36 type  1   force =    -0.01107598   -0.38744776   63.47071321
     atom   37 type  1   force =     0.00000000   -0.00000031   96.15246902
     atom   38 type  1   force =    -0.00000000   -0.00000031   96.18194666
     atom   39 type  1   force =    -0.00000000    0.00000015  104.55921540
     atom   40 type  1   force =    -0.00000000    0.00000015  104.60606309
     The local contribution  to forces
     atom    1 type  1   force =     0.00000000   -0.00000000  103.10231226
     atom    2 type  1   force =     0.00000000   -0.00000000  103.12807663
     atom    3 type  1   force =     0.00000000   -0.00000000   95.06031782
     atom    4 type  1   force =     0.00000000   -0.00000000   95.08818164
     atom    5 type  2   force =    -0.01341759   -0.00000000  179.00956052
     atom    6 type  2   force =     0.01341759    0.00000000  179.00956052
     atom    7 type  1   force =    -0.01453933   -0.29591628   63.62996005
     atom    8 type  1   force =     0.01453933   -0.29591628   63.62996005
     atom    9 type  2   force =    -0.00000000   -0.00000000  178.55351046
     atom   10 type  2   force =     0.00000000    0.00000000  176.77699231
     atom   11 type  1   force =    -0.01453933    0.29591628   63.62996005
     atom   12 type  1   force =     0.01453933    0.29591628   63.62996005
     atom   13 type  1   force =    -0.00000000   -0.00000000   39.41030807
     atom   14 type  1   force =     0.00000000    0.00000000   39.32296446
     atom   15 type  1   force =     0.00000000   -0.00000000   27.85641622
     atom   16 type  1   force =     0.00000000    0.00000000   27.39634741
     atom   17 type  2   force =    -0.00000000    0.00000000   -0.00600318
     atom   18 type  2   force =    -0.00000000    0.00000000   -0.00599033
     atom   19 type  1   force =    -0.19385333    0.51545484   -0.00254238
     atom   20 type  1   force =     0.19385333    0.51545484   -0.00254238
     atom   21 type  2   force =     0.34453824   -0.00000000   -0.00626934
     atom   22 type  2   force =    -0.34453824   -0.00000000   -0.00626934
     atom   23 type  1   force =    -0.19385403   -0.51579520   -0.00254237
     atom   24 type  1   force =     0.19385403   -0.51579520   -0.00254237
     atom   25 type  1   force =    -0.00000000    0.00000000  -27.85824776
     atom   26 type  1   force =     0.00000000    0.00000000  -27.39822716
     atom   27 type  1   force =    -0.00000000    0.00000000  -39.41209473
     atom   28 type  1   force =     0.00000000   -0.00000000  -39.32474964
     atom   29 type  2   force =    -0.01341572   -0.00000000 -179.02224092
     atom   30 type  2   force =     0.01341572    0.00000000 -179.02224092
     atom   31 type  1   force =    -0.01453587   -0.29588380  -63.63501385
     atom   32 type  1   force =     0.01453587   -0.29588380  -63.63501385
     atom   33 type  2   force =    -0.00000000    0.00000000 -178.56529686
     atom   34 type  2   force =     0.00000000    0.00000000 -176.78886223
     atom   35 type  1   force =    -0.01453587    0.29588380  -63.63501385
     atom   36 type  1   force =     0.01453587    0.29588380  -63.63501385
     atom   37 type  1   force =    -0.00000000    0.00000000  -95.06235119
     atom   38 type  1   force =     0.00000000    0.00000000  -95.09021456
     atom   39 type  1   force =    -0.00000000    0.00000000 -103.10370259
     atom   40 type  1   force =     0.00000000    0.00000000 -103.12947505
     The core correction contribution to forces
     atom    1 type  1   force =     0.00000000    0.00000000   -0.01147749
     atom    2 type  1   force =    -0.00000000    0.00000000   -0.01176993
     atom    3 type  1   force =     0.00000000   -0.00000000   -0.01097654
     atom    4 type  1   force =    -0.00000000   -0.00000000   -0.01098820
     atom    5 type  2   force =     0.00000000    0.00000000    0.00000000
     atom    6 type  2   force =     0.00000000    0.00000000    0.00000000
     atom    7 type  1   force =    -0.00000571   -0.00067875    0.00159193
     atom    8 type  1   force =     0.00000571   -0.00067875    0.00159193
     atom    9 type  2   force =     0.00000000    0.00000000    0.00000000
     atom   10 type  2   force =     0.00000000    0.00000000    0.00000000
     atom   11 type  1   force =    -0.00000571    0.00067875    0.00159193
     atom   12 type  1   force =     0.00000571    0.00067875    0.00159193
     atom   13 type  1   force =    -0.00000000   -0.00000000   -0.00044611
     atom   14 type  1   force =     0.00000000   -0.00000000   -0.00040227
     atom   15 type  1   force =     0.00000000    0.00000000   -0.00289877
     atom   16 type  1   force =     0.00000000   -0.00000000   -0.00225133
     atom   17 type  2   force =     0.00000000    0.00000000    0.00000000
     atom   18 type  2   force =     0.00000000    0.00000000    0.00000000
     atom   19 type  1   force =     0.00015142    0.00068844   -0.00000221
     atom   20 type  1   force =    -0.00015142    0.00068844   -0.00000221
     atom   21 type  2   force =     0.00000000    0.00000000    0.00000000
     atom   22 type  2   force =     0.00000000    0.00000000    0.00000000
     atom   23 type  1   force =     0.00015142   -0.00068891   -0.00000221
     atom   24 type  1   force =    -0.00015142   -0.00068891   -0.00000221
     atom   25 type  1   force =     0.00000000   -0.00000000    0.00289669
     atom   26 type  1   force =     0.00000000    0.00000000    0.00224914
     atom   27 type  1   force =     0.00000000    0.00000000    0.00044380
     atom   28 type  1   force =     0.00000000    0.00000000    0.00039997
     atom   29 type  2   force =     0.00000000    0.00000000    0.00000000
     atom   30 type  2   force =     0.00000000    0.00000000    0.00000000
     atom   31 type  1   force =    -0.00000567   -0.00067895   -0.00159501
     atom   32 type  1   force =     0.00000567   -0.00067895   -0.00159501
     atom   33 type  2   force =     0.00000000    0.00000000    0.00000000
     atom   34 type  2   force =     0.00000000    0.00000000    0.00000000
     atom   35 type  1   force =    -0.00000567    0.00067895   -0.00159501
     atom   36 type  1   force =     0.00000567    0.00067895   -0.00159501
     atom   37 type  1   force =     0.00000000   -0.00000000    0.01097399
     atom   38 type  1   force =    -0.00000000    0.00000000    0.01098566
     atom   39 type  1   force =     0.00000000    0.00000000    0.01147594
     atom   40 type  1   force =    -0.00000000   -0.00000000    0.01176817
     The Hubbard contrib.    to forces
     atom    1 type  1   force =     0.00000000    0.00000000    0.00000000
     atom    2 type  1   force =     0.00000000    0.00000000    0.00000000
     atom    3 type  1   force =     0.00000000    0.00000000    0.00000000
     atom    4 type  1   force =     0.00000000    0.00000000    0.00000000
     atom    5 type  2   force =     0.00000000    0.00000000    0.00000000
     atom    6 type  2   force =     0.00000000    0.00000000    0.00000000
     atom    7 type  1   force =     0.00000000    0.00000000    0.00000000
     atom    8 type  1   force =     0.00000000    0.00000000    0.00000000
     atom    9 type  2   force =     0.00000000    0.00000000    0.00000000
     atom   10 type  2   force =     0.00000000    0.00000000    0.00000000
     atom   11 type  1   force =     0.00000000    0.00000000    0.00000000
     atom   12 type  1   force =     0.00000000    0.00000000    0.00000000
     atom   13 type  1   force =     0.00000000    0.00000000    0.00000000
     atom   14 type  1   force =     0.00000000    0.00000000    0.00000000
     atom   15 type  1   force =     0.00000000    0.00000000    0.00000000
     atom   16 type  1   force =     0.00000000    0.00000000    0.00000000
     atom   17 type  2   force =     0.00000000    0.00000000    0.00000000
     atom   18 type  2   force =     0.00000000    0.00000000    0.00000000
     atom   19 type  1   force =     0.00000000    0.00000000    0.00000000
     atom   20 type  1   force =     0.00000000    0.00000000    0.00000000
     atom   21 type  2   force =     0.00000000    0.00000000    0.00000000
     atom   22 type  2   force =     0.00000000    0.00000000    0.00000000
     atom   23 type  1   force =     0.00000000    0.00000000    0.00000000
     atom   24 type  1   force =     0.00000000    0.00000000    0.00000000
     atom   25 type  1   force =     0.00000000    0.00000000    0.00000000
     atom   26 type  1   force =     0.00000000    0.00000000    0.00000000
     atom   27 type  1   force =     0.00000000    0.00000000    0.00000000
     atom   28 type  1   force =     0.00000000    0.00000000    0.00000000
     atom   29 type  2   force =     0.00000000    0.00000000    0.00000000
     atom   30 type  2   force =     0.00000000    0.00000000    0.00000000
     atom   31 type  1   force =     0.00000000    0.00000000    0.00000000
     atom   32 type  1   force =     0.00000000    0.00000000    0.00000000
     atom   33 type  2   force =     0.00000000    0.00000000    0.00000000
     atom   34 type  2   force =     0.00000000    0.00000000    0.00000000
     atom   35 type  1   force =     0.00000000    0.00000000    0.00000000
     atom   36 type  1   force =     0.00000000    0.00000000    0.00000000
     atom   37 type  1   force =     0.00000000    0.00000000    0.00000000
     atom   38 type  1   force =     0.00000000    0.00000000    0.00000000
     atom   39 type  1   force =     0.00000000    0.00000000    0.00000000
     atom   40 type  1   force =     0.00000000    0.00000000    0.00000000
     The SCF correction term to forces
     atom    1 type  1   force =     0.00000000   -0.00000000   -0.00001589
     atom    2 type  1   force =    -0.00000000   -0.00000000   -0.00001733
     atom    3 type  1   force =     0.00000000    0.00000001   -0.00002155
     atom    4 type  1   force =    -0.00000000    0.00000001   -0.00002127
     atom    5 type  2   force =     0.00000271    0.00000010   -0.00005204
     atom    6 type  2   force =    -0.00000271    0.00000010   -0.00005204
     atom    7 type  1   force =    -0.00000236    0.00001011   -0.00002597
     atom    8 type  1   force =     0.00000236    0.00001011   -0.00002597
     atom    9 type  2   force =     0.00000000   -0.00000008   -0.00009100
     atom   10 type  2   force =    -0.00000000   -0.00000009   -0.00009046
     atom   11 type  1   force =    -0.00000236   -0.00001014   -0.00002604
     atom   12 type  1   force =     0.00000236   -0.00001014   -0.00002604
     atom   13 type  1   force =     0.00000000    0.00000010   -0.00000330
     atom   14 type  1   force =    -0.00000000    0.00000010   -0.00000524
     atom   15 type  1   force =     0.00000000   -0.00000014   -0.00000204
     atom   16 type  1   force =    -0.00000000   -0.00000015    0.00000342
     atom   17 type  2   force =    -0.00000000    0.00000054    0.00005141
     atom   18 type  2   force =     0.00000000    0.00000054    0.00005114
     atom   19 type  1   force =    -0.00000099   -0.00000394    0.00001806
[...]
     atom   37 type  1   force =    -0.00000000   -0.00000034   96.72314714
     atom   38 type  1   force =    -0.00000000   -0.00000034   96.72294144
     atom   39 type  1   force =    -0.00000000    0.00000017  104.63968388
     atom   40 type  1   force =    -0.00000000    0.00000017  104.63946531
     The local contribution  to forces
     atom    1 type  1   force =    -0.00000000    0.00000000  103.19348606
     atom    2 type  1   force =     0.00000000    0.00000000  103.19330563
     atom    3 type  1   force =    -0.00000000    0.00000000   95.63661482
     atom    4 type  1   force =    -0.00000000    0.00000000   95.63643205
     atom    5 type  2   force =    -0.00073717    0.00000000  182.11909694
     atom    6 type  2   force =     0.00073717   -0.00000000  182.11909694
     atom    7 type  1   force =    -0.00011685    0.75855421   63.00193981
     atom    8 type  1   force =     0.00011685    0.75855421   63.00193981
     atom    9 type  2   force =    -0.00000000   -0.00000000  177.63965278
     atom   10 type  2   force =     0.00000000    0.00000000  177.62407012
     atom   11 type  1   force =    -0.00011685   -0.75855421   63.00193981
     atom   12 type  1   force =     0.00011685   -0.75855421   63.00193981
     atom   13 type  1   force =    -0.00000000   -0.00000000   39.92897021
     atom   14 type  1   force =    -0.00000000    0.00000000   39.92922143
     atom   15 type  1   force =    -0.00000000    0.00000000   27.15776062
     atom   16 type  1   force =     0.00000000    0.00000000   27.15325091
     atom   17 type  2   force =    -0.00000000    0.00000000   -0.00604974
     atom   18 type  2   force =    -0.00000000    0.00000000   -0.00604974
     atom   19 type  1   force =    -0.00013632   -0.44777071   -0.00254348
     atom   20 type  1   force =     0.00013632   -0.44777071   -0.00254348
     atom   21 type  2   force =    -0.00035889   -0.00000000   -0.00623840
     atom   22 type  2   force =     0.00035889   -0.00000000   -0.00623840
     atom   23 type  1   force =    -0.00013631    0.44742371   -0.00254348
     atom   24 type  1   force =     0.00013631    0.44742371   -0.00254348
     atom   25 type  1   force =    -0.00000000    0.00000000  -27.15961421
     atom   26 type  1   force =     0.00000000    0.00000000  -27.15510446
     atom   27 type  1   force =     0.00000000    0.00000000  -39.93077423
     atom   28 type  1   force =     0.00000000    0.00000000  -39.93102546
     atom   29 type  2   force =    -0.00073720   -0.00000000 -182.13171824
     atom   30 type  2   force =     0.00073720    0.00000000 -182.13171824
     atom   31 type  1   force =    -0.00011693    0.75854851  -63.00697691
     atom   32 type  1   force =     0.00011693    0.75854851  -63.00697691
     atom   33 type  2   force =    -0.00000000    0.00000000 -177.65151323
     atom   34 type  2   force =     0.00000000    0.00000000 -177.63593049
     atom   35 type  1   force =    -0.00011693   -0.75854851  -63.00697691
     atom   36 type  1   force =     0.00011693   -0.75854851  -63.00697691
     atom   37 type  1   force =     0.00000000    0.00000000  -95.63863115
     atom   38 type  1   force =     0.00000000    0.00000000  -95.63844839
     atom   39 type  1   force =    -0.00000000    0.00000000 -103.19488872
     atom   40 type  1   force =     0.00000000    0.00000000 -103.19470836
     The core correction contribution to forces
     atom    1 type  1   force =    -0.00000000    0.00000000   -0.01168686
     atom    2 type  1   force =     0.00000000   -0.00000000   -0.01168581
     atom    3 type  1   force =     0.00000000    0.00000000   -0.01096385
     atom    4 type  1   force =     0.00000000   -0.00000000   -0.01096352
     atom    5 type  2   force =     0.00000000    0.00000000    0.00000000
     atom    6 type  2   force =     0.00000000    0.00000000    0.00000000
     atom    7 type  1   force =     0.00000010    0.00008861    0.00241899
     atom    8 type  1   force =    -0.00000010    0.00008861    0.00241899
     atom    9 type  2   force =     0.00000000    0.00000000    0.00000000
     atom   10 type  2   force =     0.00000000    0.00000000    0.00000000
     atom   11 type  1   force =     0.00000010   -0.00008861    0.00241899
     atom   12 type  1   force =    -0.00000010   -0.00008861    0.00241899
     atom   13 type  1   force =    -0.00000000   -0.00000000   -0.00052116
     atom   14 type  1   force =     0.00000000    0.00000000   -0.00052146
     atom   15 type  1   force =    -0.00000000   -0.00000000   -0.00225621
     atom   16 type  1   force =    -0.00000000    0.00000000   -0.00225173
     atom   17 type  2   force =     0.00000000    0.00000000    0.00000000
     atom   18 type  2   force =     0.00000000    0.00000000    0.00000000
     atom   19 type  1   force =     0.00000041   -0.00019912   -0.00000214
     atom   20 type  1   force =    -0.00000041   -0.00019912   -0.00000214
     atom   21 type  2   force =     0.00000000    0.00000000    0.00000000
     atom   22 type  2   force =     0.00000000    0.00000000    0.00000000
     atom   23 type  1   force =     0.00000041    0.00019862   -0.00000214
     atom   24 type  1   force =    -0.00000041    0.00019862   -0.00000214
     atom   25 type  1   force =     0.00000000   -0.00000000    0.00225413
     atom   26 type  1   force =    -0.00000000   -0.00000000    0.00224964
     atom   27 type  1   force =    -0.00000000    0.00000000    0.00051873
     atom   28 type  1   force =    -0.00000000    0.00000000    0.00051903
     atom   29 type  2   force =     0.00000000    0.00000000    0.00000000
     atom   30 type  2   force =     0.00000000    0.00000000    0.00000000
     atom   31 type  1   force =     0.00000010    0.00008833   -0.00242185
     atom   32 type  1   force =    -0.00000010    0.00008833   -0.00242185
     atom   33 type  2   force =     0.00000000    0.00000000    0.00000000
     atom   34 type  2   force =     0.00000000    0.00000000    0.00000000
     atom   35 type  1   force =     0.00000010   -0.00008833   -0.00242185
     atom   36 type  1   force =    -0.00000010   -0.00008833   -0.00242185
     atom   37 type  1   force =     0.00000000   -0.00000000    0.01096141
     atom   38 type  1   force =     0.00000000    0.00000000    0.01096108
     atom   39 type  1   force =    -0.00000000   -0.00000000    0.01168525
     atom   40 type  1   force =     0.00000000    0.00000000    0.01168419
     The Hubbard contrib.    to forces
     atom    1 type  1   force =     0.00000000    0.00000000    0.00000000
     atom    2 type  1   force =     0.00000000    0.00000000    0.00000000
     atom    3 type  1   force =     0.00000000    0.00000000    0.00000000
     atom    4 type  1   force =     0.00000000    0.00000000    0.00000000
     atom    5 type  2   force =     0.00000000    0.00000000    0.00000000
     atom    6 type  2   force =     0.00000000    0.00000000    0.00000000
     atom    7 type  1   force =     0.00000000    0.00000000    0.00000000
     atom    8 type  1   force =     0.00000000    0.00000000    0.00000000
     atom    9 type  2   force =     0.00000000    0.00000000    0.00000000
     atom   10 type  2   force =     0.00000000    0.00000000    0.00000000
     atom   11 type  1   force =     0.00000000    0.00000000    0.00000000
     atom   12 type  1   force =     0.00000000    0.00000000    0.00000000
     atom   13 type  1   force =     0.00000000    0.00000000    0.00000000
     atom   14 type  1   force =     0.00000000    0.00000000    0.00000000
     atom   15 type  1   force =     0.00000000    0.00000000    0.00000000
     atom   16 type  1   force =     0.00000000    0.00000000    0.00000000
     atom   17 type  2   force =     0.00000000    0.00000000    0.00000000
     atom   18 type  2   force =     0.00000000    0.00000000    0.00000000
     atom   19 type  1   force =     0.00000000    0.00000000    0.00000000
     atom   20 type  1   force =     0.00000000    0.00000000    0.00000000
     atom   21 type  2   force =     0.00000000    0.00000000    0.00000000
     atom   22 type  2   force =     0.00000000    0.00000000    0.00000000
     atom   23 type  1   force =     0.00000000    0.00000000    0.00000000
     atom   24 type  1   force =     0.00000000    0.00000000    0.00000000
     atom   25 type  1   force =     0.00000000    0.00000000    0.00000000
     atom   26 type  1   force =     0.00000000    0.00000000    0.00000000
     atom   27 type  1   force =     0.00000000    0.00000000    0.00000000
     atom   28 type  1   force =     0.00000000    0.00000000    0.00000000
     atom   29 type  2   force =     0.00000000    0.00000000    0.00000000
     atom   30 type  2   force =     0.00000000    0.00000000    0.00000000
     atom   31 type  1   force =     0.00000000    0.00000000    0.00000000
     atom   32 type  1   force =     0.00000000    0.00000000    0.00000000
     atom   33 type  2   force =     0.00000000    0.00000000    0.00000000
     atom   34 type  2   force =     0.00000000    0.00000000    0.00000000
     atom   35 type  1   force =     0.00000000    0.00000000    0.00000000
     atom   36 type  1   force =     0.00000000    0.00000000    0.00000000
     atom   37 type  1   force =     0.00000000    0.00000000    0.00000000
     atom   38 type  1   force =     0.00000000    0.00000000    0.00000000
     atom   39 type  1   force =     0.00000000    0.00000000    0.00000000
     atom   40 type  1   force =     0.00000000    0.00000000    0.00000000
     The SCF correction term to forces
     atom    1 type  1   force =     0.00000000    0.00000000   -0.00000187
     atom    2 type  1   force =     0.00000000   -0.00000000   -0.00000174
     atom    3 type  1   force =    -0.00000000   -0.00000000   -0.00000120
     atom    4 type  1   force =    -0.00000000    0.00000000   -0.00000118
     atom    5 type  2   force =    -0.00000074   -0.00000000   -0.00000248
     atom    6 type  2   force =     0.00000074   -0.00000000   -0.00000248
     atom    7 type  1   force =    -0.00000042   -0.00000081    0.00000029
     atom    8 type  1   force =     0.00000042   -0.00000081    0.00000029
     atom    9 type  2   force =     0.00000000    0.00000000   -0.00000145
     atom   10 type  2   force =    -0.00000000   -0.00000000   -0.00000087
     atom   11 type  1   force =    -0.00000042    0.00000081    0.00000029
     atom   12 type  1   force =     0.00000042    0.00000081    0.00000029
     atom   13 type  1   force =     0.00000000    0.00000000    0.00000016
     atom   14 type  1   force =    -0.00000000    0.00000000    0.00000000
     atom   15 type  1   force =     0.00000000   -0.00000000   -0.00000010
     atom   16 type  1   force =    -0.00000000   -0.00000000   -0.00000032
     atom   17 type  2   force =    -0.00000000    0.00000000    0.00000001
     atom   18 type  2   force =     0.00000000    0.00000000    0.00000001
     atom   19 type  1   force =    -0.00000051   -0.00000096    0.00000000
     atom   20 type  1   force =     0.00000051   -0.00000096    0.00000000
     atom   21 type  2   force =    -0.00000189   -0.00000000    0.00000002
     atom   22 type  2   force =     0.00000189   -0.00000000    0.00000002
     atom   23 type  1   force =    -0.00000051    0.00000096    0.00000000
     atom   24 type  1   force =     0.00000051    0.00000096    0.00000000
     atom   25 type  1   force =    -0.00000000   -0.00000000    0.00000011
     atom   26 type  1   force =     0.00000000   -0.00000000    0.00000032
     atom   27 type  1   force =    -0.00000000    0.00000000   -0.00000015
     atom   28 type  1   force =    -0.00000000    0.00000000    0.00000001
     atom   29 type  2   force =    -0.00000075    0.00000000    0.00000249
     atom   30 type  2   force =     0.00000075    0.00000000    0.00000249
     atom   31 type  1   force =    -0.00000043   -0.00000083   -0.00000029
     atom   32 type  1   force =     0.00000043   -0.00000083   -0.00000029
     atom   33 type  2   force =     0.00000000   -0.00000000    0.00000145
     atom   34 type  2   force =     0.00000000   -0.00000000    0.00000088
     atom   35 type  1   force =    -0.00000043    0.00000083   -0.00000029
     atom   36 type  1   force =     0.00000043    0.00000083   -0.00000029
     atom   37 type  1   force =     0.00000000   -0.00000000    0.00000119
     atom   38 type  1   force =    -0.00000000    0.00000000    0.00000117
     atom   39 type  1   force =     0.00000000    0.00000000    0.00000187
     atom   40 type  1   force =    -0.00000000    0.00000000    0.00000174

     Total force =     0.000175     Total SCF correction =     0.000008
     Energy error            =      1.1E-07 Ry
     Gradient error          =      6.8E-05 Ry/Bohr

     bfgs converged in  23 scf cycles and  22 bfgs steps
     (criteria: energy <  1.0E-04 Ry, force <  1.0E-04 Ry/Bohr)

     End of BFGS Geometry Optimization

     Final energy             =   -3427.4862449586 Ry

     File /storage/home/mgm6007/ixd4/Maria/StrainJin_Files/RuO2-110-0-/RuO2-110-0-.bfgs deleted, as requested
Begin final coordinates

ATOMIC_POSITIONS (crystal)
O             0.0000000000        0.5000000000        0.2813118949
O             0.5000000000        0.5000000000        0.2813242374
O             0.0000000000        0.0000000000        0.3115905549
O             0.5000000000        0.0000000000        0.3115914641
Ru            0.2499989367       -0.0000000000        0.3575270462
Ru            0.7500010633        0.0000000000        0.3575270462
O             0.2499957593        0.3135507768        0.3642760268
O             0.7500042407        0.3135507768        0.3642760268
Ru            0.0000000000        0.5000000000        0.3566314590
Ru            0.5000000000        0.5000000000        0.3566439225
O             0.2499957593        0.6864492232        0.3642760268
O             0.7500042407        0.6864492232        0.3642760268
O             0.0000000000        0.0000000000        0.4139425404
O             0.5000000000        0.0000000000        0.4139423199
O             0.0000000000        0.5000000000        0.4469441816
O             0.5000000000        0.5000000000        0.4469481961
Ru            0.0000000000        0.0000000000        0.5000010000
Ru            0.5000000000        0.0000000000        0.5000010000
O             0.2500008806        0.1864869717        0.5000010000
O             0.7499991194        0.1864869717        0.5000010000
Ru            0.2499904767        0.5000000000        0.5000010000
Ru            0.7500095233        0.5000000000        0.5000010000
O             0.2500008806        0.8135140283        0.5000010000
O             0.7499991194        0.8135140283        0.5000010000
O             0.0000000000        0.5000000000        0.5530568184
O             0.5000000000        0.5000000000        0.5530528039
O             0.0000000000        0.0000000000        0.5860584596
O             0.5000000000        0.0000000000        0.5860586801
Ru            0.2499989367        0.0000000000        0.6424749538
Ru            0.7500010633       -0.0000000000        0.6424749538
O             0.2499957593        0.3135507768        0.6357259732
O             0.7500042407        0.3135507768        0.6357259732
Ru            0.0000000000        0.5000000000        0.6433705410
Ru            0.5000000000        0.5000000000        0.6433580775
O             0.2499957593        0.6864492232        0.6357259732
O             0.7500042407        0.6864492232        0.6357259732
O             0.0000000000        0.0000000000        0.6884104451
O             0.5000000000        0.0000000000        0.6884095359
O             0.0000000000        0.5000000000        0.7186891051
O             0.5000000000        0.5000000000        0.7186767626
End final coordinates



     Writing all to output data dir /storage/home/mgm6007/ixd4/Maria/StrainJin_Files/RuO2-110-0-/RuO2-110-0-.save/
 
     init_run     :    487.79s CPU   1045.10s WALL (       1 calls)
     electrons    :  39626.07s CPU  97478.36s WALL (      23 calls)
     update_pot   :     41.03s CPU     41.21s WALL (      22 calls)
     forces       :     43.62s CPU     44.80s WALL (      23 calls)

     Called by init_run:
     wfcinit      :      0.65s CPU      0.66s WALL (       1 calls)
     wfcinit:atom :      0.01s CPU      0.01s WALL (       1 calls)
     wfcinit:wfcr :      0.62s CPU      0.63s WALL (       1 calls)
     potinit      :    385.18s CPU    675.52s WALL (       1 calls)
     hinit0       :    101.52s CPU    368.43s WALL (       1 calls)

     Called by electrons:
     c_bands      :    656.58s CPU    663.43s WALL (     372 calls)
     sum_band     :    128.50s CPU    132.62s WALL (     372 calls)
     v_of_rho     :     50.28s CPU     51.61s WALL (     378 calls)
     v_h          :      3.24s CPU      3.26s WALL (     378 calls)
     v_xc         :     49.69s CPU     51.02s WALL (     401 calls)
     newd         :     33.82s CPU     36.04s WALL (     378 calls)
     PAW_pot      :     35.09s CPU     35.29s WALL (     400 calls)
     mix_rho      :    325.02s CPU    328.78s WALL (     372 calls)

     Called by c_bands:
     init_us_2    :      4.92s CPU      5.05s WALL (     767 calls)
     init_us_2:cp :      4.91s CPU      5.05s WALL (     767 calls)
     cegterg      :    638.57s CPU    645.16s WALL (     372 calls)

     Called by sum_band:
     sum_band:wei :      0.15s CPU      0.17s WALL (     372 calls)
     sum_band:loo :     89.74s CPU     90.66s WALL (     372 calls)
     sum_band:buf :      0.00s CPU      0.00s WALL (     372 calls)
     sum_band:ini :      2.46s CPU      2.48s WALL (     372 calls)
     sum_band:cal :     29.67s CPU     29.99s WALL (     394 calls)
     sum_band:bec :      0.17s CPU      0.17s WALL (     394 calls)
     addusdens    :     29.77s CPU     32.54s WALL (     372 calls)
                                        0.00s GPU  (     372 calls)
     addusd:skk   :      4.19s CPU      4.22s WALL (     372 calls)
                                        0.00s GPU  (     372 calls)

     Called by *egterg:
     cdiaghg      :     70.96s CPU     71.37s WALL (    1140 calls)
     cegterg:over :     66.60s CPU     67.07s WALL (     807 calls)
     cegterg:upda :     34.65s CPU     35.16s WALL (     807 calls)
     cegterg:last :     66.74s CPU     67.05s WALL (     580 calls)
     cdiaghg:chol :      4.44s CPU      4.48s WALL (    1140 calls)
     cdiaghg:inve :      1.33s CPU      1.34s WALL (    1140 calls)
     cdiaghg:para :     17.49s CPU     17.62s WALL (    2280 calls)
     h_psi        :    318.48s CPU    322.25s WALL (    1180 calls)
     s_psi        :     51.01s CPU     51.27s WALL (    1180 calls)
     g_psi        :      1.18s CPU      1.19s WALL (     807 calls)

     Called by h_psi:
     h_psi:calbec :     63.02s CPU     63.30s WALL (    1180 calls)
     vloc_psi     :    200.67s CPU    202.99s WALL (    1180 calls)
     add_vuspsi   :     51.95s CPU     52.40s WALL (    1180 calls)

     General routines
     calbec       :     99.79s CPU    100.77s WALL (    1666 calls)
     fft          :   9113.85s CPU   9115.39s WALL (    5160 calls)
     ffts         :    117.31s CPU    118.45s WALL (  153242 calls)
     fftw         :    187.90s CPU    189.84s WALL (  424988 calls)
     interpolate  :   9071.18s CPU   9072.00s WALL (     378 calls)
 
     Parallel routines

     PAW routines
     PAW_pot      :     35.09s CPU     35.29s WALL (     400 calls)
     PAW_symme    :      0.22s CPU      0.22s WALL (     772 calls)
 
     Environ routines
 
     PWSCF        :     11h54m CPU   1d 5h 2m WALL

 
   This run was terminated on:  21:13:16  25Jul2023            

=------------------------------------------------------------------------------=
   JOB DONE.
=------------------------------------------------------------------------------=
