
     Program PWSCF v.7.2 starts on 18Jul2023 at 16:11: 4 
        Git branch: heads/qe-7.2
        Last git commit: b4c5e8deeb7d1863e7553a87b45f8d22c21926a5
        Last git commit date: Mon Mar 27 16:12:09 2023 +0000
        Last git commit subject: Merge branch 'merge_fix_hubbard' into 'develop'

     This program is part of the open-source Quantum ESPRESSO suite
     for quantum simulation of materials; please cite
         "P. Giannozzi et al., J. Phys.:Condens. Matter 21 395502 (2009);
         "P. Giannozzi et al., J. Phys.:Condens. Matter 29 465901 (2017);
         "P. Giannozzi et al., J. Chem. Phys. 152 154105 (2020);
          URL http://www.quantum-espresso.org", 
     in publications or presentations arising from this work. More details at
     http://www.quantum-espresso.org/quote

     Parallel version (MPI), running on    20 processors

     MPI processes distributed on     1 nodes
     109363 MiB available memory on the printing compute node when the environment starts
 
     Reading input from RuO2-110-0-0234.in

     Current dimensions of program PWSCF are:
     Max number of different atomic species (ntypx) = 10
     Max number of k-points (npk) =  40000
     Max angular momentum in pseudopotentials (lmaxx) =  4
 
     Reading input from environ.in:
     * Environ restarting
     * setting up water environment
     * using electronic solvent mode
     * setting boundary derivatives method to SCCS default
     

     File /storage/home/mgm6007/ixd4/Maria/Strain1_Files/RuO2-110-0-0234/RuO2-110-0-0234.update deleted, as requested

     File /storage/home/mgm6007/ixd4/Maria/Strain1_Files/RuO2-110-0-0234/RuO2-110-0-0234.bfgs deleted, as requested
     file O.pbe-n-kjpaw_psl.0.1.UPF: wavefunction(s)  2P renormalized
     Message from routine setup:
     using ibrav=0 with symmetry is DISCOURAGED, use correct ibrav instead
 
     R & G space division:  proc/nbgrp/npool/nimage =      20
     Subspace diagonalization in iterative solution of the eigenvalue problem:
     one sub-group per band group will be used
     scalapack distributed-memory algorithm (size of sub-group:  2*  2 procs)

 
     Parallelization info
     --------------------
     sticks:   dense  smooth     PW     G-vecs:    dense   smooth      PW
     Min         276     110     29                54830    13868    1873
     Max         277     111     30                54841    13883    1882
     Sum        5527    2209    585              1096679   277485   37533
 
     Using Slab Decomposition
 


     bravais-lattice index     =            0
     lattice parameter (alat)  =      12.3893  a.u.
     unit-cell volume          =    5808.5831 (a.u.)^3
     number of atoms/cell      =           48
     number of atomic types    =            3
     number of electrons       =       368.00
     number of Kohn-Sham states=          221
     kinetic-energy cutoff     =      50.0000  Ry
     charge density cutoff     =     500.0000  Ry
     scf convergence threshold =      1.0E-09
     mixing beta               =       0.7000
     number of iterations used =            8  local-TF  mixing
     energy convergence thresh.=      1.0E-04
     force convergence thresh. =      1.0E-04
     Exchange-correlation= PBE
                           (   1   4   3   4   0   0   0)
     nstep                     =          200


     ================================================================================
 
                                  Environ Setup Summary

     ================================================================================
 
     Please cite

          O. Andreussi, I. Dabo and N. Marzari, J. Chem. Phys. 136, 064102 (2012)

     in publications or presentations arising from this work.

     ================================================================================
 
     Parameters
     ==========

     compensation onset threshold      =               0.1000E+00
     static permittivity               =                    78.30
     surface tension in input (dyn/cm) =                    47.90
     surface tension in internal units =               0.6153E-04
     external pressure in input (GPa)  =                    -0.36
     external pressure in inter. units =              -0.2447E-04

     Solvent Boundary
     ================

     solvent mode                      =               electronic
     derivatives method                =                    chain
     numerical core for derivatives    =                      fft
     switching function adopted        =                     SCCS
     density limit for vacuum region   =               0.5000E-02
     density limit for bulk solvent    =               0.1000E-03

     Electrostatic Setup
     ===================

     electrostatic problem to solve    =              generalized
     numerical solver adopted          =                       cg
     type of auxiliary density adopted =                     none
     numerical core for poisson        =                      fft
     type of pbc corrections           =                parabolic
     numerical core for corrections    =                      1da

     ================================================================================
 

     celldm(1)=  12.389316  celldm(2)=   0.000000  celldm(3)=   0.000000
     celldm(4)=   0.000000  celldm(5)=   0.000000  celldm(6)=   0.000000

     crystal axes: (cart. coord. in units of alat)
               a(1) = (   1.000000   0.000000   0.000000 )  
               a(2) = (   0.000000   0.904766   0.000000 )  
               a(3) = (   0.000000   0.000000   3.375918 )  

     reciprocal axes: (cart. coord. in units 2 pi/alat)
               b(1) = (  1.000000  0.000000  0.000000 )  
               b(2) = (  0.000000  1.105258  0.000000 )  
               b(3) = (  0.000000  0.000000  0.296216 )  


     PseudoPot. # 1 for O  read from file:
     /gpfs/group/ixd4/default/Simon/pseudopotentials/materialscloud/SSSP_1.3.0_PBE_efficiency/O.pbe-n-kjpaw_psl.0.1.UPF
     MD5 check sum: 0234752ac141de4415c5fc33072bef88
     Pseudo is Projector augmented-wave + core cor, Zval =  6.0
     Generated using "atomic" code by A. Dal Corso  v.5.0.99 svn rev. 10869
     Shape of augmentation charge: BESSEL
     Using radial grid of 1095 points,  4 beta functions with: 
                l(1) =   0
                l(2) =   0
                l(3) =   1
                l(4) =   1
     Q(r) pseudized with 0 coefficients 


     PseudoPot. # 2 for Ru read from file:
     /gpfs/group/ixd4/default/Simon/pseudopotentials/materialscloud/SSSP_1.3.0_PBE_efficiency/Ru_ONCV_PBE-1.0.oncvpsp.upf
     MD5 check sum: be037bb81c227cfb9b1461a9f099f4bd
     Pseudo is Norm-conserving, Zval = 16.0
     Generated using ONCVPSP code by D. R. Hamann
     Using radial grid of 1458 points,  6 beta functions with: 
                l(1) =   0
                l(2) =   0
                l(3) =   1
                l(4) =   1
                l(5) =   2
                l(6) =   2

     PseudoPot. # 3 for H  read from file:
     /gpfs/group/ixd4/default/Simon/pseudopotentials/materialscloud/SSSP_1.3.0_PBE_efficiency/H.pbe-rrkjus_psl.1.0.0.UPF
     MD5 check sum: f52b6d4d1c606e5624b1dc7b2218f220
     Pseudo is Ultrasoft, Zval =  1.0
     Generated using "atomic" code by A. Dal Corso  v.5.1
     Using radial grid of  929 points,  2 beta functions with: 
                l(1) =   0
                l(2) =   0
     Q(r) pseudized with 0 coefficients 


     atomic species   valence    mass     pseudopotential
        O              6.00    15.99940     O ( 1.00)
        Ru            16.00   101.07000     Ru( 1.00)
        H              1.00     1.00794     H ( 1.00)

      2 Sym. Ops. (no inversion) found



   Cartesian axes

     site n.     atom                  positions (alat units)
         1           O   tau(   1) = (   0.0152355   0.3849258   0.8902299  )
         2           O   tau(   2) = (   0.4802043   0.4094998   0.9176556  )
         3           O   tau(   3) = (  -0.0033324   0.0073122   1.0080647  )
         4           O   tau(   4) = (   0.4983655   0.0023079   1.0154434  )
         5           Ru  tau(   5) = (   0.2507907  -0.0057399   1.2111689  )
         6           Ru  tau(   6) = (   0.7452648  -0.0057486   1.2111700  )
         7           O   tau(   7) = (   0.2456749   0.2764482   1.2263481  )
         8           O   tau(   8) = (   0.7507321   0.2776051   1.2206784  )
         9           Ru  tau(   9) = (  -0.0006220   0.4459678   1.2160514  )
        10           Ru  tau(  10) = (   0.4994629   0.4468718   1.1863564  )
        11           O   tau(  11) = (   0.2433326   0.6179440   1.1903636  )
        12           O   tau(  12) = (   0.7530303   0.6168057   1.1873688  )
        13           O   tau(  13) = (  -0.0021893  -0.0096585   1.3877148  )
        14           O   tau(  14) = (   0.4980737  -0.0062603   1.3889030  )
        15           O   tau(  15) = (   0.0005390   0.4621818   1.5087188  )
        16           O   tau(  16) = (   0.4986165   0.4610730   1.4946258  )
        17           Ru  tau(  17) = (  -0.0026218   0.0064434   1.6879622  )
        18           Ru  tau(  18) = (   0.4969593   0.0067209   1.6879622  )
        19           O   tau(  19) = (   0.2463246   0.1755385   1.6879622  )
        20           O   tau(  20) = (   0.7454296   0.1758778   1.6879622  )
        21           Ru  tau(  21) = (   0.2558989   0.4599043   1.6879622  )
        22           Ru  tau(  22) = (   0.7498015   0.4597907   1.6879622  )
        23           O   tau(  23) = (   0.2471465   0.7439040   1.6879622  )
        24           O   tau(  24) = (   0.7449721   0.7434040   1.6879622  )
        25           O   tau(  25) = (   0.0005390   0.4621818   1.8672022  )
        26           O   tau(  26) = (   0.4986165   0.4610730   1.8812951  )
        27           O   tau(  27) = (  -0.0021893  -0.0096585   1.9882062  )
        28           O   tau(  28) = (   0.4980737  -0.0062603   1.9870180  )
        29           Ru  tau(  29) = (   0.2507907  -0.0057399   2.1647520  )
        30           Ru  tau(  30) = (   0.7452648  -0.0057486   2.1647509  )
        31           O   tau(  31) = (   0.2456749   0.2764482   2.1495729  )
        32           O   tau(  32) = (   0.7507321   0.2776051   2.1552425  )
        33           Ru  tau(  33) = (  -0.0006220   0.4459678   2.1598696  )
        34           Ru  tau(  34) = (   0.4994629   0.4468718   2.1895645  )
        35           O   tau(  35) = (   0.2433326   0.6179440   2.1855573  )
        36           O   tau(  36) = (   0.7530303   0.6168057   2.1885522  )
        37           O   tau(  37) = (  -0.0033324   0.0073122   2.3678596  )
        38           O   tau(  38) = (   0.4983655   0.0023079   2.3604809  )
        39           O   tau(  39) = (   0.0152355   0.3849258   2.4856910  )
        40           O   tau(  40) = (   0.4802043   0.4094998   2.4582653  )
        41           H   tau(  41) = (   0.1593406   0.4053930   0.8521684  )
        42           H   tau(  42) = (   0.1593406   0.4053930   2.5237492  )
        43           H   tau(  43) = (   0.0006237   0.2307444   0.9098458  )
        44           H   tau(  44) = (   0.0006237   0.2307444   2.4660718  )
        45           H   tau(  45) = (   0.4967970   0.1247062   0.9268523  )
        46           H   tau(  46) = (   0.4967970   0.1247062   2.4490653  )
        47           H   tau(  47) = (  -0.0042606   0.8132991   0.8964782  )
        48           H   tau(  48) = (  -0.0042606   0.8132991   2.4794394  )

     number of k points=     2  Marzari-Vanderbilt smearing, width (Ry)=  0.0300
                       cart. coord. in units 2pi/alat
        k(    1) = (   0.2500000   0.2763144   0.0000000), wk =   1.0000000
        k(    2) = (  -0.2500000   0.2763144   0.0000000), wk =   1.0000000

     Dense  grid:  1096679 G-vectors     FFT dimensions: (  90,  80, 300)

     Smooth grid:   277485 G-vectors     FFT dimensions: (  60,  54, 192)

     Estimated max dynamical RAM per process >     179.98 MB

     Estimated total dynamical RAM >       3.52 GB

     Check: negative core charge=   -0.000001

     Initial potential from superposition of free atoms

     starting charge     367.9933, renormalised to     368.0000

     add environment contribution to local potential
     Polarization accuracy = 7.2E-12, # of iterations =  25

     negative rho (up, down):  3.035E-05 0.000E+00
     Starting wfcs are  240 randomized atomic wfcs
     Checking if some PAW data can be deallocated... 

     total cpu time spent up to now is     2354.6 secs

     per-process dynamical memory:   150.0 Mb

     Self-consistent Calculation

     iteration #  1     ecut=    50.00 Ry     beta= 0.70
     Davidson diagonalization with overlap
     ethr =  1.00E-02,  avg # of iterations =  3.0

     total cpu time spent up to now is     3078.4 secs

     total energy              =   -3435.45257042 Ry
     estimated scf accuracy    <       9.10772885 Ry
     electrostatic embedding   =      -0.00173202 Ry
     cavitation energy         =       0.01919460 Ry
     PV energy                 =      -0.08480101 Ry
     correction to one-el term =     224.43330050 Ry

     iteration #  2     ecut=    50.00 Ry     beta= 0.70
     Davidson diagonalization with overlap
     ethr =  2.47E-03,  avg # of iterations =  2.0

     total cpu time spent up to now is     3614.7 secs

     total energy              =   -3437.39784712 Ry
     estimated scf accuracy    <       2.26769957 Ry
     electrostatic embedding   =      -0.00275693 Ry
     cavitation energy         =       0.01910343 Ry
     PV energy                 =      -0.08564893 Ry
     correction to one-el term =     224.43645144 Ry

     iteration #  3     ecut=    50.00 Ry     beta= 0.70
     Davidson diagonalization with overlap
     ethr =  6.16E-04,  avg # of iterations =  2.5

     total cpu time spent up to now is     4298.4 secs

     total energy              =   -3437.58450577 Ry
     estimated scf accuracy    <       0.44792038 Ry
     electrostatic embedding   =      -0.00316668 Ry
     cavitation energy         =       0.01917657 Ry
     PV energy                 =      -0.08580273 Ry
     correction to one-el term =     224.43750086 Ry

     iteration #  4     ecut=    50.00 Ry     beta= 0.70
     Davidson diagonalization with overlap
     ethr =  1.22E-04,  avg # of iterations =  5.0

     total cpu time spent up to now is     4872.0 secs

     total energy              =   -3437.63182802 Ry
     estimated scf accuracy    <       0.83668603 Ry
     electrostatic embedding   =      -0.00330600 Ry
     cavitation energy         =       0.01939478 Ry
     PV energy                 =      -0.08530642 Ry
     correction to one-el term =     224.43749755 Ry

     iteration #  5     ecut=    50.00 Ry     beta= 0.70
     Davidson diagonalization with overlap
     ethr =  1.22E-04,  avg # of iterations =  1.0

     total cpu time spent up to now is     5755.3 secs

     total energy              =   -3437.61781512 Ry
     estimated scf accuracy    <       0.31478369 Ry
     electrostatic embedding   =      -0.00345008 Ry
     cavitation energy         =       0.01962955 Ry
     PV energy                 =      -0.08490440 Ry
     correction to one-el term =     224.43760041 Ry

     iteration #  6     ecut=    50.00 Ry     beta= 0.70
     Davidson diagonalization with overlap
     ethr =  8.55E-05,  avg # of iterations =  2.0

     total cpu time spent up to now is     6436.0 secs

     total energy              =   -3437.61182315 Ry
     estimated scf accuracy    <       0.18553361 Ry
     electrostatic embedding   =      -0.00355875 Ry
     cavitation energy         =       0.02042112 Ry
     PV energy                 =      -0.08343497 Ry
     correction to one-el term =     224.43713634 Ry

     iteration #  7     ecut=    50.00 Ry     beta= 0.70
     Davidson diagonalization with overlap
     ethr =  5.04E-05,  avg # of iterations =  2.0

     total cpu time spent up to now is     7210.9 secs

     total energy              =   -3437.60284847 Ry
     estimated scf accuracy    <       0.12218681 Ry
     electrostatic embedding   =      -0.00347803 Ry
     cavitation energy         =       0.02081227 Ry
     PV energy                 =      -0.08260407 Ry
     correction to one-el term =     224.43656521 Ry

     iteration #  8     ecut=    50.00 Ry     beta= 0.70
     Davidson diagonalization with overlap
     ethr =  3.32E-05,  avg # of iterations = 10.0

     negative rho (up, down):  5.864E-06 0.000E+00

     add environment contribution to local potential
     Polarization accuracy = 3.6E-12, # of iterations =  53

     total cpu time spent up to now is     7876.0 secs

     total energy              =   -3437.59826687 Ry
     estimated scf accuracy    <       0.05175918 Ry
     electrostatic embedding   =      -0.00311698 Ry
     cavitation energy         =       0.02161249 Ry
     PV energy                 =      -0.08094814 Ry
     correction to one-el term =     224.43483717 Ry

     iteration #  9     ecut=    50.00 Ry     beta= 0.70
     Davidson diagonalization with overlap
     ethr =  1.41E-05,  avg # of iterations =  8.0

     negative rho (up, down):  4.394E-04 0.000E+00

     total cpu time spent up to now is     8481.7 secs

     total energy              =   -3437.63605136 Ry
     estimated scf accuracy    <       0.16595549 Ry
     electrostatic embedding   =      -0.04829568 Ry
     cavitation energy         =       0.02173033 Ry
     PV energy                 =      -0.08048083 Ry
     correction to one-el term =     179.64102866 Ry

     iteration # 10     ecut=    50.00 Ry     beta= 0.70
     Davidson diagonalization with overlap
     ethr =  1.41E-05,  avg # of iterations =  1.0

     negative rho (up, down):  2.617E-05 0.000E+00

     add environment contribution to local potential
     Polarization accuracy = 8.0E-12, # of iterations =  49

     total cpu time spent up to now is     9113.3 secs

     total energy              =   -3437.63093443 Ry
     estimated scf accuracy    <       0.06953540 Ry
     electrostatic embedding   =      -0.04843913 Ry
     cavitation energy         =       0.02173354 Ry
     PV energy                 =      -0.08035358 Ry
     correction to one-el term =     179.64195002 Ry

     iteration # 11     ecut=    50.00 Ry     beta= 0.70
     Davidson diagonalization with overlap
     ethr =  1.41E-05,  avg # of iterations =  1.5

     negative rho (up, down):  2.519E-07 0.000E+00

     add environment contribution to local potential
     Polarization accuracy = 3.4E-12, # of iterations =  49

     total cpu time spent up to now is     9721.9 secs

     total energy              =   -3437.63519769 Ry
     estimated scf accuracy    <       0.01245890 Ry
     electrostatic embedding   =      -0.05035794 Ry
     cavitation energy         =       0.02149388 Ry
     PV energy                 =      -0.08051258 Ry
     correction to one-el term =     180.88136266 Ry

     iteration # 12     ecut=    50.00 Ry     beta= 0.70
     Davidson diagonalization with overlap
     ethr =  3.39E-06,  avg # of iterations =  5.0

     negative rho (up, down):  1.073E-03 0.000E+00

     add environment contribution to local potential
     Polarization accuracy = 3.5E-12, # of iterations =  49

     total cpu time spent up to now is    10341.5 secs

     total energy              =   -3437.63555185 Ry
     estimated scf accuracy    <       0.00692967 Ry
     electrostatic embedding   =      -0.05143497 Ry
     cavitation energy         =       0.02135134 Ry
     PV energy                 =      -0.08062533 Ry
     correction to one-el term =     181.91634496 Ry

     iteration # 13     ecut=    50.00 Ry     beta= 0.70
     Davidson diagonalization with overlap
     ethr =  1.88E-06,  avg # of iterations =  5.0

     negative rho (up, down):  3.575E-04 0.000E+00

     add environment contribution to local potential
     Polarization accuracy = 2.6E-12, # of iterations =  48

     total cpu time spent up to now is    11057.0 secs

     total energy              =   -3437.63776162 Ry
     estimated scf accuracy    <       0.00229550 Ry
     electrostatic embedding   =      -0.05511170 Ry
     cavitation energy         =       0.02125356 Ry
     PV energy                 =      -0.08061476 Ry
     correction to one-el term =     182.73061714 Ry

     iteration # 14     ecut=    50.00 Ry     beta= 0.70
     Davidson diagonalization with overlap
     ethr =  6.24E-07,  avg # of iterations =  6.0

     negative rho (up, down):  3.691E-05 0.000E+00

     add environment contribution to local potential
     Polarization accuracy = 7.2E-12, # of iterations =  45

     total cpu time spent up to now is    11760.2 secs

     total energy              =   -3437.63860833 Ry
     estimated scf accuracy    <       0.00363329 Ry
     electrostatic embedding   =      -0.05537573 Ry
     cavitation energy         =       0.02111609 Ry
     PV energy                 =      -0.08079708 Ry
     correction to one-el term =     183.96348798 Ry

     iteration # 15     ecut=    50.00 Ry     beta= 0.70
     Davidson diagonalization with overlap
     ethr =  6.24E-07,  avg # of iterations =  6.0

     add environment contribution to local potential
     Polarization accuracy = 4.7E-12, # of iterations =  45

     total cpu time spent up to now is    12538.4 secs

     total energy              =   -3437.63870566 Ry
     estimated scf accuracy    <       0.00443584 Ry
     electrostatic embedding   =      -0.05572789 Ry
     cavitation energy         =       0.02101214 Ry
     PV energy                 =      -0.08096284 Ry
     correction to one-el term =     185.09111933 Ry

     iteration # 16     ecut=    50.00 Ry     beta= 0.70
     Davidson diagonalization with overlap
     ethr =  6.24E-07,  avg # of iterations =  5.0

     negative rho (up, down):  1.961E-08 0.000E+00

     add environment contribution to local potential
     Polarization accuracy = 3.5E-12, # of iterations =  45

     total cpu time spent up to now is    13285.0 secs

     total energy              =   -3437.63896057 Ry
     estimated scf accuracy    <       0.00086611 Ry
     electrostatic embedding   =      -0.05446869 Ry
     cavitation energy         =       0.02102312 Ry
     PV energy                 =      -0.08101809 Ry
     correction to one-el term =     185.54790041 Ry

     iteration # 17     ecut=    50.00 Ry     beta= 0.70
     Davidson diagonalization with overlap
     ethr =  2.35E-07,  avg # of iterations =  7.0

     negative rho (up, down):  3.000E-04 0.000E+00

     add environment contribution to local potential
     Polarization accuracy = 4.3E-12, # of iterations =  45

     total cpu time spent up to now is    13861.3 secs

     total energy              =   -3437.63908410 Ry
     estimated scf accuracy    <       0.00034895 Ry
     electrostatic embedding   =      -0.05328720 Ry
     cavitation energy         =       0.02100390 Ry
     PV energy                 =      -0.08108884 Ry
     correction to one-el term =     186.16913315 Ry

     iteration # 18     ecut=    50.00 Ry     beta= 0.70
     Davidson diagonalization with overlap
     ethr =  9.48E-08,  avg # of iterations =  7.0

     negative rho (up, down):  2.009E-04 0.000E+00

     add environment contribution to local potential
     Polarization accuracy = 8.7E-12, # of iterations =  45

     total cpu time spent up to now is    14013.7 secs

     total energy              =   -3437.63914599 Ry
     estimated scf accuracy    <       0.00007454 Ry
     electrostatic embedding   =      -0.05214140 Ry
     cavitation energy         =       0.02100013 Ry
     PV energy                 =      -0.08111910 Ry
     correction to one-el term =     186.55253451 Ry

     iteration # 19     ecut=    50.00 Ry     beta= 0.70
     Davidson diagonalization with overlap
     ethr =  2.03E-08,  avg # of iterations =  2.0

     negative rho (up, down):  2.729E-04 0.000E+00

     add environment contribution to local potential
     Polarization accuracy = 8.0E-12, # of iterations =  45

     total cpu time spent up to now is    14149.2 secs

     total energy              =   -3437.63915945 Ry
     estimated scf accuracy    <       0.00006265 Ry
     electrostatic embedding   =      -0.05179718 Ry
     cavitation energy         =       0.02100596 Ry
     PV energy                 =      -0.08109018 Ry
     correction to one-el term =     186.61399826 Ry

     iteration # 20     ecut=    50.00 Ry     beta= 0.70
     Davidson diagonalization with overlap
     ethr =  1.70E-08,  avg # of iterations =  2.0

     negative rho (up, down):  1.497E-04 0.000E+00

     add environment contribution to local potential
     Polarization accuracy = 9.6E-12, # of iterations =  46

     total cpu time spent up to now is    14281.8 secs

     total energy              =   -3437.63916532 Ry
     estimated scf accuracy    <       0.00002744 Ry
     electrostatic embedding   =      -0.05149443 Ry
     cavitation energy         =       0.02100818 Ry
     PV energy                 =      -0.08108000 Ry
     correction to one-el term =     186.66207582 Ry

     iteration # 21     ecut=    50.00 Ry     beta= 0.70
     Davidson diagonalization with overlap
     ethr =  7.46E-09,  avg # of iterations =  2.0

     negative rho (up, down):  1.893E-04 0.000E+00

     add environment contribution to local potential
     Polarization accuracy = 1.0E-11, # of iterations =  46

     total cpu time spent up to now is    14407.8 secs

     total energy              =   -3437.63917122 Ry
     estimated scf accuracy    <       0.00000992 Ry
     electrostatic embedding   =      -0.05114417 Ry
     cavitation energy         =       0.02100930 Ry
     PV energy                 =      -0.08106458 Ry
     correction to one-el term =     186.69913487 Ry

     iteration # 22     ecut=    50.00 Ry     beta= 0.70
     Davidson diagonalization with overlap
     ethr =  2.70E-09,  avg # of iterations =  2.0

     negative rho (up, down):  1.334E-04 0.000E+00

     add environment contribution to local potential
     Polarization accuracy = 8.6E-12, # of iterations =  46

     total cpu time spent up to now is    14548.8 secs

     total energy              =   -3437.63917266 Ry
     estimated scf accuracy    <       0.00000252 Ry
     electrostatic embedding   =      -0.05104133 Ry
     cavitation energy         =       0.02100685 Ry
     PV energy                 =      -0.08106017 Ry
     correction to one-el term =     186.71776372 Ry

     iteration # 23     ecut=    50.00 Ry     beta= 0.70
     Davidson diagonalization with overlap
     ethr =  6.85E-10,  avg # of iterations =  2.0

     negative rho (up, down):  1.140E-04 0.000E+00

     add environment contribution to local potential
     Polarization accuracy = 8.4E-12, # of iterations =  46

     total cpu time spent up to now is    14690.1 secs

     total energy              =   -3437.63917355 Ry
     estimated scf accuracy    <       0.00000150 Ry
     electrostatic embedding   =      -0.05097976 Ry
     cavitation energy         =       0.02100392 Ry
     PV energy                 =      -0.08105833 Ry
     correction to one-el term =     186.71960156 Ry

     iteration # 24     ecut=    50.00 Ry     beta= 0.70
     Davidson diagonalization with overlap
     ethr =  4.06E-10,  avg # of iterations =  2.0

     negative rho (up, down):  1.739E-04 0.000E+00

     add environment contribution to local potential
     Polarization accuracy = 2.5E-12, # of iterations =  47

     total cpu time spent up to now is    14820.8 secs

     total energy              =   -3437.63917387 Ry
     estimated scf accuracy    <       0.00000066 Ry
     electrostatic embedding   =      -0.05093653 Ry
     cavitation energy         =       0.02100202 Ry
     PV energy                 =      -0.08105972 Ry
     correction to one-el term =     186.72371801 Ry

     iteration # 25     ecut=    50.00 Ry     beta= 0.70
     Davidson diagonalization with overlap
     ethr =  1.80E-10,  avg # of iterations =  2.0

     negative rho (up, down):  1.675E-04 0.000E+00

     add environment contribution to local potential
     Polarization accuracy = 4.3E-12, # of iterations =  46

     total cpu time spent up to now is    14950.0 secs

     total energy              =   -3437.63917430 Ry
     estimated scf accuracy    <       0.00000047 Ry
     electrostatic embedding   =      -0.05087258 Ry
     cavitation energy         =       0.02099986 Ry
     PV energy                 =      -0.08106238 Ry
     correction to one-el term =     186.74098155 Ry

     iteration # 26     ecut=    50.00 Ry     beta= 0.70
     Davidson diagonalization with overlap
     ethr =  1.28E-10,  avg # of iterations =  3.0

     negative rho (up, down):  1.520E-04 0.000E+00

     add environment contribution to local potential
     Polarization accuracy = 6.8E-12, # of iterations =  46

     total cpu time spent up to now is    15094.1 secs

     total energy              =   -3437.63917476 Ry
     estimated scf accuracy    <       0.00000028 Ry
     electrostatic embedding   =      -0.05076380 Ry
     cavitation energy         =       0.02099815 Ry
     PV energy                 =      -0.08106203 Ry
     correction to one-el term =     186.75525882 Ry

     iteration # 27     ecut=    50.00 Ry     beta= 0.70
     Davidson diagonalization with overlap
     ethr =  7.68E-11,  avg # of iterations =  1.0

     negative rho (up, down):  1.479E-04 0.000E+00

     add environment contribution to local potential
     Polarization accuracy = 9.3E-12, # of iterations =  46

     total cpu time spent up to now is    15233.2 secs

     total energy              =   -3437.63917496 Ry
     estimated scf accuracy    <       0.00000011 Ry
     electrostatic embedding   =      -0.05076797 Ry
     cavitation energy         =       0.02099815 Ry
     PV energy                 =      -0.08106307 Ry
     correction to one-el term =     186.75401869 Ry

     iteration # 28     ecut=    50.00 Ry     beta= 0.70
     Davidson diagonalization with overlap
     ethr =  3.08E-11,  avg # of iterations =  2.0

     negative rho (up, down):  1.428E-04 0.000E+00

     add environment contribution to local potential
     Polarization accuracy = 2.4E-12, # of iterations =  47

     total cpu time spent up to now is    15371.0 secs

     total energy              =   -3437.63917516 Ry
     estimated scf accuracy    <       0.00000009 Ry
     electrostatic embedding   =      -0.05075903 Ry
     cavitation energy         =       0.02099828 Ry
     PV energy                 =      -0.08106339 Ry
     correction to one-el term =     186.75541220 Ry

     iteration # 29     ecut=    50.00 Ry     beta= 0.70
     Davidson diagonalization with overlap
     ethr =  2.36E-11,  avg # of iterations =  2.0

     negative rho (up, down):  1.390E-04 0.000E+00

     add environment contribution to local potential
     Polarization accuracy = 2.4E-12, # of iterations =  47

     total cpu time spent up to now is    15508.4 secs

     total energy              =   -3437.63917547 Ry
     estimated scf accuracy    <       0.00000007 Ry
     electrostatic embedding   =      -0.05073712 Ry
     cavitation energy         =       0.02099836 Ry
     PV energy                 =      -0.08106334 Ry
     correction to one-el term =     186.75829602 Ry

     iteration # 30     ecut=    50.00 Ry     beta= 0.70
     Davidson diagonalization with overlap
     ethr =  1.79E-11,  avg # of iterations =  1.0

     negative rho (up, down):  1.367E-04 0.000E+00

     add environment contribution to local potential
     Polarization accuracy = 3.8E-12, # of iterations =  46

     total cpu time spent up to now is    15642.8 secs

     total energy              =   -3437.63917570 Ry
     estimated scf accuracy    <       0.00000006 Ry
     electrostatic embedding   =      -0.05073419 Ry
     cavitation energy         =       0.02099852 Ry
     PV energy                 =      -0.08106307 Ry
     correction to one-el term =     186.75830983 Ry

     iteration # 31     ecut=    50.00 Ry     beta= 0.70
     Davidson diagonalization with overlap
     ethr =  1.68E-11,  avg # of iterations =  1.0

     negative rho (up, down):  1.304E-04 0.000E+00

     add environment contribution to local potential
     Polarization accuracy = 4.3E-12, # of iterations =  46

     total cpu time spent up to now is    15771.5 secs

     total energy              =   -3437.63917593 Ry
     estimated scf accuracy    <       0.00000006 Ry
     electrostatic embedding   =      -0.05073512 Ry
     cavitation energy         =       0.02099853 Ry
     PV energy                 =      -0.08106290 Ry
     correction to one-el term =     186.75775146 Ry

     iteration # 32     ecut=    50.00 Ry     beta= 0.70
     Davidson diagonalization with overlap
     ethr =  1.66E-11,  avg # of iterations =  2.0

     negative rho (up, down):  1.245E-04 0.000E+00

     add environment contribution to local potential
     Polarization accuracy = 2.4E-12, # of iterations =  47

     total cpu time spent up to now is    15917.5 secs

     total energy              =   -3437.63917668 Ry
     estimated scf accuracy    <       0.00000006 Ry
     electrostatic embedding   =      -0.05073044 Ry
     cavitation energy         =       0.02099886 Ry
     PV energy                 =      -0.08106261 Ry
     correction to one-el term =     186.75779496 Ry

     iteration # 33     ecut=    50.00 Ry     beta= 0.70
     Davidson diagonalization with overlap
     ethr =  1.54E-11,  avg # of iterations =  2.0

     negative rho (up, down):  1.217E-04 0.000E+00

     add environment contribution to local potential
     Polarization accuracy = 2.6E-12, # of iterations =  46

     total cpu time spent up to now is    16032.0 secs

     total energy              =   -3437.63917905 Ry
     estimated scf accuracy    <       0.00000005 Ry
     electrostatic embedding   =      -0.05072525 Ry
     cavitation energy         =       0.02099912 Ry
     PV energy                 =      -0.08106206 Ry
     correction to one-el term =     186.75742317 Ry

     iteration # 34     ecut=    50.00 Ry     beta= 0.70
     Davidson diagonalization with overlap
     ethr =  1.37E-11,  avg # of iterations =  3.5

     negative rho (up, down):  1.242E-04 0.000E+00

     add environment contribution to local potential
     Polarization accuracy = 9.7E-12, # of iterations =  45

     total cpu time spent up to now is    16168.3 secs

     total energy              =   -3437.63918186 Ry
     estimated scf accuracy    <       0.00000004 Ry
     electrostatic embedding   =      -0.05073237 Ry
     cavitation energy         =       0.02099936 Ry
     PV energy                 =      -0.08106164 Ry
     correction to one-el term =     186.75552152 Ry

     iteration # 35     ecut=    50.00 Ry     beta= 0.70
     Davidson diagonalization with overlap
     ethr =  1.01E-11,  avg # of iterations =  4.0

     negative rho (up, down):  1.355E-04 0.000E+00

     add environment contribution to local potential
     Polarization accuracy = 7.9E-12, # of iterations =  45

     total cpu time spent up to now is    16315.7 secs

     total energy              =   -3437.63918714 Ry
     estimated scf accuracy    <       0.00000002 Ry
     electrostatic embedding   =      -0.05074421 Ry
     cavitation energy         =       0.02099943 Ry
     PV energy                 =      -0.08106151 Ry
     correction to one-el term =     186.75355329 Ry

     iteration # 36     ecut=    50.00 Ry     beta= 0.70
     Davidson diagonalization with overlap
     ethr =  6.78E-12,  avg # of iterations =  4.5

     negative rho (up, down):  1.345E-04 0.000E+00

     add environment contribution to local potential
     Polarization accuracy = 7.3E-12, # of iterations =  45

     total cpu time spent up to now is    16464.2 secs

     total energy              =   -3437.63919377 Ry
     estimated scf accuracy    <       0.00000001 Ry
     electrostatic embedding   =      -0.05074813 Ry
     cavitation energy         =       0.02099904 Ry
     PV energy                 =      -0.08106225 Ry
     correction to one-el term =     186.75444416 Ry

     iteration # 37     ecut=    50.00 Ry     beta= 0.70
     Davidson diagonalization with overlap
     ethr =  3.62E-12,  avg # of iterations =  2.5

     negative rho (up, down):  1.369E-04 0.000E+00

     add environment contribution to local potential
     Polarization accuracy = 6.1E-12, # of iterations =  46

     total cpu time spent up to now is    16603.5 secs

     total energy              =   -3437.63919572 Ry
     estimated scf accuracy    <       0.00000001 Ry
     electrostatic embedding   =      -0.05074431 Ry
     cavitation energy         =       0.02099903 Ry
     PV energy                 =      -0.08106224 Ry
     correction to one-el term =     186.75502953 Ry

     iteration # 38     ecut=    50.00 Ry     beta= 0.70
     Davidson diagonalization with overlap
     ethr =  2.87E-12,  avg # of iterations =  3.0

     negative rho (up, down):  1.394E-04 0.000E+00

     add environment contribution to local potential
     Polarization accuracy = 3.4E-12, # of iterations =  45

     total cpu time spent up to now is    16745.4 secs

     total energy              =   -3437.63919791 Ry
     estimated scf accuracy    <          5.0E-09 Ry
     electrostatic embedding   =      -0.05074504 Ry
     cavitation energy         =       0.02099889 Ry
     PV energy                 =      -0.08106251 Ry
     correction to one-el term =     186.75548009 Ry

     iteration # 39     ecut=    50.00 Ry     beta= 0.70
     Davidson diagonalization with overlap
     ethr =  1.36E-12,  avg # of iterations =  5.0

     negative rho (up, down):  1.376E-04 0.000E+00

     add environment contribution to local potential
     Polarization accuracy = 4.6E-12, # of iterations =  46

     total cpu time spent up to now is    16873.0 secs

     total energy              =   -3437.63919928 Ry
     estimated scf accuracy    <          1.3E-09 Ry
     electrostatic embedding   =      -0.05074357 Ry
     cavitation energy         =       0.02099870 Ry
     PV energy                 =      -0.08106283 Ry
     correction to one-el term =     186.75641232 Ry

     iteration # 40     ecut=    50.00 Ry     beta= 0.70
     Davidson diagonalization with overlap
     ethr =  3.64E-13,  avg # of iterations =  2.0

     negative rho (up, down):  1.348E-04 0.000E+00

     the potential shift due to the Gaussian-smeared nuclei is    -1.3540 ev

     total cpu time spent up to now is    16998.3 secs

     End of self-consistent calculation

          k = 0.2500 0.2763 0.0000 ( 34692 PWs)   bands (ev):

   -77.2159 -77.2026 -76.6654 -76.6527 -76.6445 -76.6360 -76.6255 -76.6128
   -76.5994 -76.5840 -76.5445 -76.5315 -47.5898 -47.5764 -47.1949 -47.1815
   -47.0770 -47.0642 -47.0282 -47.0199 -47.0145 -47.0017 -46.8850 -46.8716
   -46.8043 -46.7316 -46.7238 -46.7098 -46.6969 -46.6933 -46.6804 -46.6346
   -46.5741 -46.5613 -46.5463 -46.5017 -46.4963 -46.4890 -46.4759 -46.4631
   -46.4581 -46.4322 -46.4227 -46.4195 -46.4169 -46.3657 -46.3172 -46.3043
   -24.5188 -24.5009 -23.4690 -23.3968 -23.2140 -23.1487 -23.1266 -22.9752
   -22.9533 -22.8179 -22.7827 -22.6959 -22.3711 -22.2562 -22.1617 -22.1477
   -22.1023 -22.0085 -21.9994 -21.9204 -21.9038 -21.8509 -21.7871 -21.7004
   -21.6853 -21.4441 -20.8472 -20.7930 -12.3911 -12.3734 -11.5230 -11.4658
   -11.4275 -11.3986 -11.2647 -11.0529 -11.0067 -10.8113 -10.7776 -10.7406
   -10.6547 -10.5178 -10.4705 -10.4411 -10.3865 -10.3799 -10.2872 -10.2833
   -10.0760  -9.9654  -9.8958  -9.8860  -9.7795  -9.7634  -9.6512  -9.5765
    -9.4233  -9.3205  -9.3150  -9.2232  -9.1550  -8.9413  -8.8791  -8.8250
    -8.7316  -8.6747  -8.5846  -8.5564  -8.5068  -8.4652  -8.3903  -8.2328
    -8.1749  -8.0804  -8.0665  -7.9668  -7.9227  -7.8584  -7.6962  -7.6250
    -7.5300  -7.4748  -7.4517  -7.4382  -7.4176  -7.3402  -7.3220  -7.2684
    -7.2457  -7.1012  -7.0771  -7.0202  -6.9779  -6.8789  -6.8605  -6.7884
    -6.6875  -6.5765  -6.5459  -6.4615  -6.4547  -6.3250  -6.2239  -6.1717
    -6.1187  -6.0625  -6.0368  -5.9529  -5.8963  -5.7745  -5.7395  -5.5356
    -4.4956  -4.3776  -4.2494  -4.2241  -4.1458  -4.0963  -4.0365  -4.0209
    -4.0059  -3.9842  -3.9386  -3.8884  -3.8774  -3.8375  -3.7874  -3.7331
    -3.7058  -3.6488  -3.6311  -3.5830  -3.4659  -3.4178  -3.3103  -3.2509
    -3.1693  -3.0960  -3.0088  -2.8473  -2.5986  -2.5259  -2.5127  -2.3599
    -2.2526  -2.2354  -2.0425  -1.9730  -1.4304  -1.2433  -1.1452  -1.1371
    -1.0045  -0.8596  -0.7277  -0.2514  -0.1035   0.0907   0.1711   0.3398
     0.5706   0.6965   0.7202   0.8680   0.8899   0.9274   1.0909   1.2718
     1.2787   1.4376   1.4827   1.5498   1.5761

          k =-0.2500 0.2763 0.0000 ( 34692 PWs)   bands (ev):

   -77.2159 -77.2026 -76.6654 -76.6527 -76.6445 -76.6360 -76.6255 -76.6128
   -76.5994 -76.5840 -76.5445 -76.5315 -47.5898 -47.5764 -47.1948 -47.1815
   -47.0770 -47.0642 -47.0282 -47.0199 -47.0145 -47.0018 -46.8849 -46.8715
   -46.8043 -46.7316 -46.7238 -46.7098 -46.6969 -46.6934 -46.6804 -46.6346
   -46.5741 -46.5613 -46.5463 -46.5017 -46.4963 -46.4890 -46.4759 -46.4631
   -46.4581 -46.4322 -46.4227 -46.4195 -46.4169 -46.3657 -46.3172 -46.3043
   -24.5191 -24.5012 -23.4641 -23.3899 -23.2161 -23.1594 -23.1348 -22.9719
   -22.9498 -22.8172 -22.7819 -22.6945 -22.3711 -22.2546 -22.1650 -22.1485
   -22.1006 -22.0080 -22.0004 -21.9174 -21.9039 -21.8525 -21.7872 -21.7004
   -21.6848 -21.4440 -20.8474 -20.7932 -12.3848 -12.3671 -11.5420 -11.4866
   -11.4310 -11.3977 -11.2666 -11.0129 -10.9657 -10.8418 -10.7878 -10.7843
   -10.6662 -10.5124 -10.4699 -10.4541 -10.3992 -10.3786 -10.2888 -10.1744
   -10.0476 -10.0358  -9.8870  -9.8699  -9.8250  -9.7440  -9.6565  -9.5458
    -9.4055  -9.3719  -9.3183  -9.2186  -9.1796  -8.9243  -8.8288  -8.8179
    -8.7608  -8.6611  -8.5957  -8.5753  -8.4731  -8.4575  -8.3672  -8.2243
    -8.2149  -8.1073  -8.0656  -7.9949  -7.9417  -7.7998  -7.6947  -7.6248
    -7.5515  -7.5108  -7.4580  -7.4388  -7.4062  -7.3259  -7.3020  -7.2531
    -7.2479  -7.1061  -7.0795  -7.0167  -6.9535  -6.8963  -6.8808  -6.7942
    -6.7187  -6.5726  -6.5000  -6.4800  -6.4367  -6.3008  -6.2175  -6.2112
    -6.1521  -6.0771  -6.0244  -5.9301  -5.8646  -5.7655  -5.7579  -5.5421
    -4.5005  -4.3662  -4.2593  -4.2381  -4.1599  -4.0995  -4.0180  -4.0139
    -3.9948  -3.9777  -3.9482  -3.8820  -3.8650  -3.8349  -3.7949  -3.7396
    -3.6766  -3.6531  -3.6449  -3.5767  -3.4652  -3.4609  -3.2872  -3.2580
    -3.1626  -3.0990  -3.0154  -2.8460  -2.6031  -2.5245  -2.5178  -2.3601
    -2.2507  -2.2276  -2.0469  -1.9604  -1.4320  -1.2541  -1.1418  -1.1353
    -1.0029  -0.8570  -0.7329  -0.2502  -0.1059   0.0904   0.1635   0.3416
     0.5705   0.7049   0.7168   0.8599   0.8943   0.9339   1.1001   1.2736
     1.2914   1.4323   1.4754   1.5557   1.5676

     the Fermi energy is    -3.2358 ev

!    total energy              =   -3437.63919959 Ry
     estimated scf accuracy    <          3.7E-10 Ry
     smearing contrib. (-TS)   =       0.06762882 Ry
     internal energy E=F+TS    =   -3437.70682841 Ry

     The total energy is F=E-TS. E is the sum of the following terms:
     one-electron contribution =  -25664.48007228 Ry
     hartree contribution      =   12824.52580151 Ry
     xc contribution           =    -450.04415840 Ry
     ewald contribution        =    9932.13220629 Ry
     one-center paw contrib.   =    -266.48680107 Ry
     electrostatic embedding   =      -0.05073993 Ry
     cavitation energy         =       0.02099865 Ry
     PV energy                 =      -0.08106284 Ry
     correction to one-el term =     186.75699965 Ry

     WARNING: you are using the parabolic pbc correction;
              the potential shift above must be added to 
              band and Fermi energies.

     convergence has been achieved in  40 iterations

     negative rho (up, down):  1.348E-04 0.000E+00

     Forces acting on atoms (cartesian axes, Ry/au):

     atom    1 type  1   force =    -0.00015756   -0.00065169    0.00043958
     atom    2 type  1   force =    -0.00072034   -0.00241073   -0.00006962
     atom    3 type  1   force =     0.00094937    0.00425439   -0.00070350
     atom    4 type  1   force =    -0.00210390   -0.00354092   -0.00121530
     atom    5 type  2   force =    -0.00133462    0.00051118    0.00149239
     atom    6 type  2   force =    -0.00010137   -0.00038403   -0.00144987
     atom    7 type  1   force =     0.00174242    0.00029095    0.00263697
     atom    8 type  1   force =     0.00012232   -0.00037607   -0.00101731
     atom    9 type  2   force =     0.00113063   -0.00112768    0.00026839
     atom   10 type  2   force =     0.00116572    0.00101670   -0.00334969
     atom   11 type  1   force =     0.00130745   -0.00071687    0.00032304
     atom   12 type  1   force =    -0.00008234   -0.00164030   -0.00036935
     atom   13 type  1   force =    -0.00240101    0.00136541    0.00311524
     atom   14 type  1   force =    -0.00025964   -0.00061702    0.00035503
     atom   15 type  1   force =    -0.00247981    0.00070946   -0.00013012
     atom   16 type  1   force =     0.00234722    0.00046029    0.00140817
     atom   17 type  2   force =    -0.00154591   -0.00039917    0.00000000
     atom   18 type  2   force =    -0.00069031    0.00073385    0.00000000
     atom   19 type  1   force =    -0.00315260   -0.00040803    0.00000000
     atom   20 type  1   force =     0.00254666   -0.00058460    0.00000000
     atom   21 type  2   force =    -0.00283023   -0.00007526    0.00000000
     atom   22 type  2   force =    -0.00134515   -0.00008794    0.00000000
     atom   23 type  1   force =    -0.00211390    0.00012182    0.00000000
     atom   24 type  1   force =     0.00168360    0.00026022    0.00000000
     atom   25 type  1   force =    -0.00247981    0.00070946    0.00013012
     atom   26 type  1   force =     0.00234722    0.00046029   -0.00140817
     atom   27 type  1   force =    -0.00240101    0.00136541   -0.00311524
     atom   28 type  1   force =    -0.00025964   -0.00061702   -0.00035503
     atom   29 type  2   force =    -0.00133462    0.00051118   -0.00149239
     atom   30 type  2   force =    -0.00010137   -0.00038403    0.00144987
     atom   31 type  1   force =     0.00174242    0.00029095   -0.00263697
     atom   32 type  1   force =     0.00012232   -0.00037607    0.00101731
     atom   33 type  2   force =     0.00113063   -0.00112768   -0.00026839
     atom   34 type  2   force =     0.00116572    0.00101670    0.00334969
     atom   35 type  1   force =     0.00130745   -0.00071687   -0.00032304
     atom   36 type  1   force =    -0.00008234   -0.00164030    0.00036935
     atom   37 type  1   force =     0.00094937    0.00425439    0.00070350
     atom   38 type  1   force =    -0.00210390   -0.00354092    0.00121530
     atom   39 type  1   force =    -0.00015756   -0.00065169   -0.00043958
     atom   40 type  1   force =    -0.00072034   -0.00241073    0.00006962
     atom   41 type  3   force =     0.00093868   -0.00085431   -0.00048520
     atom   42 type  3   force =     0.00093868   -0.00085431    0.00048520
     atom   43 type  3   force =     0.00332660    0.00273573   -0.00740133
     atom   44 type  3   force =     0.00332660    0.00273573    0.00740133
     atom   45 type  3   force =     0.00065059    0.00070967    0.00309070
     atom   46 type  3   force =     0.00065059    0.00070967   -0.00309070
     atom   47 type  3   force =    -0.00031650    0.00048539    0.00280556
     atom   48 type  3   force =    -0.00031650    0.00048539   -0.00280556
     The non-local contrib.  to forces
     atom    1 type  1   force =     1.53585781   -1.08938300    0.34281690
     atom    2 type  1   force =     0.01057032    0.01122820    1.08381876
     atom    3 type  1   force =    -0.01472627   -1.08055567   -0.66553133
     atom    4 type  1   force =    -0.01491754    1.40682528   -0.08284592
     atom    5 type  2   force =    -0.00309636    0.00593169    0.04028067
     atom    6 type  2   force =     0.00412241    0.00545209    0.05075631
     atom    7 type  1   force =     0.00726449   -0.08046076   -0.20754147
     atom    8 type  1   force =    -0.04079814   -0.07820408   -0.17479087
     atom    9 type  2   force =    -0.00907713    0.01372113   -0.00048973
     atom   10 type  2   force =     0.00070757    0.00528368    0.00768991
     atom   11 type  1   force =     0.02452420    0.08383079    0.08748322
     atom   12 type  1   force =    -0.06506297    0.07893758    0.11265836
     atom   13 type  1   force =    -0.00590065    0.07544362    0.02029846
     atom   14 type  1   force =    -0.01027110    0.02783339   -0.05133537
     atom   15 type  1   force =    -0.05474902   -0.05697479   -0.20927947
     atom   16 type  1   force =    -0.04141491   -0.05588538    0.18729752
     atom   17 type  2   force =    -0.01739614    0.00504040    0.00000000
     atom   18 type  2   force =    -0.02085908    0.00431460    0.00000000
     atom   19 type  1   force =     0.03009153    0.09856056    0.00000000
     atom   20 type  1   force =     0.00281761    0.10566205    0.00000000
     atom   21 type  2   force =    -0.00114079    0.00369909    0.00000000
     atom   22 type  2   force =    -0.00356111    0.00397252    0.00000000
     atom   23 type  1   force =     0.03971802   -0.10073123    0.00000000
     atom   24 type  1   force =    -0.00240171   -0.10669377    0.00000000
     atom   25 type  1   force =    -0.05474902   -0.05697479    0.20927947
     atom   26 type  1   force =    -0.04141491   -0.05588538   -0.18729752
     atom   27 type  1   force =    -0.00590065    0.07544362   -0.02029846
     atom   28 type  1   force =    -0.01027110    0.02783339    0.05133537
     atom   29 type  2   force =    -0.00309636    0.00593169   -0.04028067
     atom   30 type  2   force =     0.00412241    0.00545209   -0.05075631
     atom   31 type  1   force =     0.00726449   -0.08046076    0.20754147
     atom   32 type  1   force =    -0.04079814   -0.07820408    0.17479087
     atom   33 type  2   force =    -0.00907713    0.01372113    0.00048973
     atom   34 type  2   force =     0.00070757    0.00528368   -0.00768991
     atom   35 type  1   force =     0.02452420    0.08383079   -0.08748322
     atom   36 type  1   force =    -0.06506297    0.07893758   -0.11265836
     atom   37 type  1   force =    -0.01472627   -1.08055567    0.66553133
     atom   38 type  1   force =    -0.01491754    1.40682528    0.08284592
     atom   39 type  1   force =     1.53585781   -1.08938300   -0.34281690
     atom   40 type  1   force =     0.01057032    0.01122820   -1.08381876
     atom   41 type  3   force =    -0.10058389   -0.01666423    0.02805161
     atom   42 type  3   force =    -0.10058389   -0.01666423   -0.02805161
     atom   43 type  3   force =     0.01053116    0.08414162   -0.01011793
     atom   44 type  3   force =     0.01053116    0.08414162    0.01011793
     atom   45 type  3   force =     0.00106400   -0.08120237    0.06053643
     atom   46 type  3   force =     0.00106400   -0.08120237   -0.06053643
     atom   47 type  3   force =     0.00076472    0.07194935    0.08356322
     atom   48 type  3   force =     0.00076472    0.07194935   -0.08356322
     The ionic contribution  to forces
     atom    1 type  1   force =    -3.33973221    2.74141512  -94.09389972
     atom    2 type  1   force =     0.44831422    0.13267694 -100.31974251
     atom    3 type  1   force =    -0.20463992    0.02697773  -91.03750402
     atom    4 type  1   force =     0.27353118   -3.46223923  -92.73433398
     atom    5 type  2   force =    -0.60039568   -1.82628413 -171.16301784
     atom    6 type  2   force =     0.55570184   -1.69713948 -171.18977037
     atom    7 type  1   force =     0.50885016    0.17106029  -59.44406880
     atom    8 type  1   force =    -0.20615055    0.23301433  -61.13908592
     atom    9 type  2   force =    -1.39967314    2.14036540 -169.61702635
     atom   10 type  2   force =     1.30922826    2.83258885 -175.42213251
     atom   11 type  1   force =     0.20537060    0.34992606  -68.00338996
     atom   12 type  1   force =     0.05982798    0.19263011  -69.05093203
     atom   13 type  1   force =    -0.12358017   -0.68896793  -39.07753737
     atom   14 type  1   force =     0.14935828   -0.60520896  -38.46406382
     atom   15 type  1   force =     0.05627261    0.49152024  -24.67563466
     atom   16 type  1   force =     0.47607521    0.39597448  -27.45430842
     atom   17 type  2   force =    -0.55398652    1.02242140   -0.00044398
     atom   18 type  2   force =     0.09043206    0.94236901   -0.00045182
     atom   19 type  1   force =    -0.02266907    0.60604581   -0.00008637
     atom   20 type  1   force =    -0.03269052    0.53125651   -0.00008443
     atom   21 type  2   force =     1.36141233   -0.17348711   -0.00025729
     atom   22 type  2   force =    -1.85624891   -0.21723072   -0.00024888
     atom   23 type  1   force =    -0.01979003   -0.64501123   -0.00008532
     atom   24 type  1   force =    -0.05497903   -0.56356737   -0.00008413
     atom   25 type  1   force =     0.05628002    0.49152163   24.67540243
     atom   26 type  1   force =     0.47608971    0.39597544   27.45413394
     atom   27 type  1   force =    -0.12358102   -0.68898509   39.07782477
     atom   28 type  1   force =     0.14935992   -0.60522447   38.46436150
     atom   29 type  2   force =    -0.60037225   -1.82628231  171.16330451
     atom   30 type  2   force =     0.55568128   -1.69713540  171.19006168
     atom   31 type  1   force =     0.50885269    0.17103263   59.44413543
     atom   32 type  1   force =    -0.20615236    0.23298869   61.13915702
     atom   33 type  2   force =    -1.39968419    2.14037453  169.61715052
     atom   34 type  2   force =     1.30923658    2.83259795  175.42228454
     atom   35 type  1   force =     0.20537494    0.34995505   68.00345260
     atom   36 type  1   force =     0.05982416    0.19265558   69.05099787
     atom   37 type  1   force =    -0.20464630    0.02714540   91.03746786
     atom   38 type  1   force =     0.27353799   -3.46247468   92.73440209
     atom   39 type  1   force =    -3.33979025    2.74139842   94.09409187
     atom   40 type  1   force =     0.44831807    0.13268486  100.31981931
     atom   41 type  3   force =     2.82277121    0.64259769  -16.11315395
     atom   42 type  3   force =     2.82282537    0.64260607   16.11314616
     atom   43 type  3   force =    -0.44918359   -2.34995655  -15.41171577
     atom   44 type  3   force =    -0.44918045   -2.34989961   15.41167988
     atom   45 type  3   force =     0.07398693    1.76337403  -17.34834209
     atom   46 type  3   force =     0.07398403    1.76359257   17.34837612
     atom   47 type  3   force =    -0.07168483   -2.23570548  -17.73919722
     atom   48 type  3   force =    -0.07168665   -2.23594309   17.73934940
     The local contribution  to forces
     atom    1 type  1   force =     1.74250685   -1.65155059   93.74911540
     atom    2 type  1   force =    -0.39146037   -0.09240714   99.17108413
     atom    3 type  1   force =     0.20317594    1.07742910   91.77987065
     atom    4 type  1   force =    -0.24581566    2.02844872   92.79039237
     atom    5 type  2   force =     0.64819407    1.81520618  171.15434252
     atom    6 type  2   force =    -0.60505659    1.68306586  171.13994295
     atom    7 type  1   force =    -0.50344658   -0.08496638   59.65848081
     atom    8 type  1   force =     0.23539391   -0.14541467   61.30113680
     atom    9 type  2   force =     1.38255038   -2.16023968  169.62989402
     atom   10 type  2   force =    -1.27649908   -2.81476074  175.34412102
     atom   11 type  1   force =    -0.20562172   -0.43935645   67.92192378
     atom   12 type  1   force =    -0.01869872   -0.28347508   68.91871904
     atom   13 type  1   force =     0.12458799    0.61586466   39.06754981
     atom   14 type  1   force =    -0.13708672    0.57536314   38.51125442
     atom   15 type  1   force =    -0.00616021   -0.43447808   24.88264078
     atom   16 type  1   force =    -0.43103179   -0.33965579   27.26654350
     atom   17 type  2   force =     0.56771582   -1.02790456   -0.00587142
     atom   18 type  2   force =    -0.06813239   -0.94659305   -0.00586773
     atom   19 type  1   force =    -0.00878313   -0.70405954   -0.00246504
     atom   20 type  1   force =     0.03103225   -0.63643663   -0.00246858
     atom   21 type  2   force =    -1.35884181    0.17004018   -0.00604777
     atom   22 type  2   force =     1.85429641    0.21353452   -0.00606074
     atom   23 type  1   force =    -0.01995876    0.74478537   -0.00246796
     atom   24 type  1   force =     0.05743871    0.66932212   -0.00246945
     atom   25 type  1   force =    -0.00615320   -0.43449985  -24.88440949
     atom   26 type  1   force =    -0.43101999   -0.33967096  -27.26832569
     atom   27 type  1   force =     0.12458783    0.61585598  -39.06934979
     atom   28 type  1   force =    -0.13708610    0.57535485  -38.51303337
     atom   29 type  2   force =     0.64820666    1.81519771 -171.16041224
     atom   30 type  2   force =    -0.60506665    1.68305690 -171.14600911
     atom   31 type  1   force =    -0.50341992   -0.08495446  -59.66091923
     atom   32 type  1   force =     0.23536360   -0.14540540  -61.30359719
     atom   33 type  2   force =     1.38257031   -2.16029662 -169.63581176
     atom   34 type  2   force =    -1.27653619   -2.81482452 -175.34989428
     atom   35 type  1   force =    -0.20558411   -0.43938147  -67.92438721
     atom   36 type  1   force =    -0.01873534   -0.28349155  -68.92118980
     atom   37 type  1   force =     0.20318729    1.07741761  -91.78360224
     atom   38 type  1   force =    -0.24582326    2.02856449  -92.79418511
     atom   39 type  1   force =     1.74252614   -1.65155685  -93.75078417
     atom   40 type  1   force =    -0.39149698   -0.09247525  -99.17253687
     atom   41 type  3   force =    -2.72231008   -0.62847074   16.09412787
     atom   42 type  3   force =    -2.72231008   -0.62847074  -16.09412787
     atom   43 type  3   force =     0.43427267    2.27937762   15.42001249
     atom   44 type  3   force =     0.43427267    2.27937762  -15.42001249
     atom   45 type  3   force =    -0.07009644   -1.68174292   17.29352893
     atom   46 type  3   force =    -0.07009644   -1.68174292  -17.29352893
     atom   47 type  3   force =     0.06552550    2.17577927   17.69694043
     atom   48 type  3   force =     0.06552550    2.17577927  -17.69694043
     The core correction contribution to forces
     atom    1 type  1   force =    -0.01498424    0.01013207   -0.00380753
     atom    2 type  1   force =     0.00001227    0.00011345   -0.00959800
     atom    3 type  1   force =     0.00013661    0.01096196    0.00596784
     atom    4 type  1   force =     0.00014522   -0.01388790    0.00019870
     atom    5 type  2   force =     0.00000000    0.00000000    0.00000000
     atom    6 type  2   force =     0.00000000    0.00000000    0.00000000
     atom    7 type  1   force =    -0.00036083    0.00001991    0.00205885
     atom    8 type  1   force =     0.00064241    0.00010268    0.00181964
     atom    9 type  2   force =     0.00000000    0.00000000    0.00000000
     atom   10 type  2   force =     0.00000000    0.00000000    0.00000000
     atom   11 type  1   force =    -0.00049474   -0.00002915   -0.00073008
     atom   12 type  1   force =     0.00087442   -0.00009191   -0.00093693
     atom   13 type  1   force =     0.00005926   -0.00080108   -0.00022546
     atom   14 type  1   force =     0.00012892   -0.00023170    0.00059102
     atom   15 type  1   force =     0.00061300    0.00056055    0.00233100
     atom   16 type  1   force =     0.00039301    0.00063349   -0.00245191
     atom   17 type  2   force =     0.00000000    0.00000000    0.00000000
     atom   18 type  2   force =     0.00000000    0.00000000    0.00000000
     atom   19 type  1   force =    -0.00030851   -0.00050908   -0.00000207
     atom   20 type  1   force =    -0.00008894   -0.00052213   -0.00000210
     atom   21 type  2   force =     0.00000000    0.00000000    0.00000000
     atom   22 type  2   force =     0.00000000    0.00000000    0.00000000
     atom   23 type  1   force =    -0.00040720    0.00054569   -0.00000196
     atom   24 type  1   force =    -0.00003582    0.00054940   -0.00000198
     atom   25 type  1   force =     0.00061297    0.00056066   -0.00233357
     atom   26 type  1   force =     0.00039301    0.00063367    0.00244978
     atom   27 type  1   force =     0.00005925   -0.00080126    0.00022321
     atom   28 type  1   force =     0.00012894   -0.00023188   -0.00059326
     atom   29 type  2   force =     0.00000000    0.00000000    0.00000000
     atom   30 type  2   force =     0.00000000    0.00000000    0.00000000
     atom   31 type  1   force =    -0.00036079    0.00001993   -0.00206078
     atom   32 type  1   force =     0.00064233    0.00010278   -0.00182163
     atom   33 type  2   force =     0.00000000    0.00000000    0.00000000
     atom   34 type  2   force =     0.00000000    0.00000000    0.00000000
     atom   35 type  1   force =    -0.00049458   -0.00002927    0.00072807
     atom   36 type  1   force =     0.00087427   -0.00009205    0.00093489
     atom   37 type  1   force =     0.00013662    0.01096403   -0.00597253
     atom   38 type  1   force =     0.00014522   -0.01389018   -0.00020276
     atom   39 type  1   force =    -0.01498514    0.01013215    0.00380634
     atom   40 type  1   force =     0.00001216    0.00011320    0.00959576
     atom   41 type  3   force =     0.00000000    0.00000000    0.00000000
     atom   42 type  3   force =     0.00000000    0.00000000    0.00000000
     atom   43 type  3   force =     0.00000000    0.00000000    0.00000000
     atom   44 type  3   force =     0.00000000    0.00000000    0.00000000
     atom   45 type  3   force =     0.00000000    0.00000000    0.00000000
     atom   46 type  3   force =     0.00000000    0.00000000    0.00000000
     atom   47 type  3   force =     0.00000000    0.00000000    0.00000000
     atom   48 type  3   force =     0.00000000    0.00000000    0.00000000
     The Hubbard contrib.    to forces
     atom    1 type  1   force =     0.00000000    0.00000000    0.00000000
     atom    2 type  1   force =     0.00000000    0.00000000    0.00000000
     atom    3 type  1   force =     0.00000000    0.00000000    0.00000000
     atom    4 type  1   force =     0.00000000    0.00000000    0.00000000
     atom    5 type  2   force =     0.00000000    0.00000000    0.00000000
     atom    6 type  2   force =     0.00000000    0.00000000    0.00000000
     atom    7 type  1   force =     0.00000000    0.00000000    0.00000000
     atom    8 type  1   force =     0.00000000    0.00000000    0.00000000
     atom    9 type  2   force =     0.00000000    0.00000000    0.00000000
     atom   10 type  2   force =     0.00000000    0.00000000    0.00000000
     atom   11 type  1   force =     0.00000000    0.00000000    0.00000000
     atom   12 type  1   force =     0.00000000    0.00000000    0.00000000
     atom   13 type  1   force =     0.00000000    0.00000000    0.00000000
     atom   14 type  1   force =     0.00000000    0.00000000    0.00000000
     atom   15 type  1   force =     0.00000000    0.00000000    0.00000000
     atom   16 type  1   force =     0.00000000    0.00000000    0.00000000
     atom   17 type  2   force =     0.00000000    0.00000000    0.00000000
     atom   18 type  2   force =     0.00000000    0.00000000    0.00000000
     atom   19 type  1   force =     0.00000000    0.00000000    0.00000000
     atom   20 type  1   force =     0.00000000    0.00000000    0.00000000
     atom   21 type  2   force =     0.00000000    0.00000000    0.00000000
     atom   22 type  2   force =     0.00000000    0.00000000    0.00000000
     atom   23 type  1   force =     0.00000000    0.00000000    0.00000000
     atom   24 type  1   force =     0.00000000    0.00000000    0.00000000
     atom   25 type  1   force =     0.00000000    0.00000000    0.00000000
     atom   26 type  1   force =     0.00000000    0.00000000    0.00000000
     atom   27 type  1   force =     0.00000000    0.00000000    0.00000000
     atom   28 type  1   force =     0.00000000    0.00000000    0.00000000
     atom   29 type  2   force =     0.00000000    0.00000000    0.00000000
     atom   30 type  2   force =     0.00000000    0.00000000    0.00000000
     atom   31 type  1   force =     0.00000000    0.00000000    0.00000000
     atom   32 type  1   force =     0.00000000    0.00000000    0.00000000
     atom   33 type  2   force =     0.00000000    0.00000000    0.00000000
     atom   34 type  2   force =     0.00000000    0.00000000    0.00000000
     atom   35 type  1   force =     0.00000000    0.00000000    0.00000000
     atom   36 type  1   force =     0.00000000    0.00000000    0.00000000
     atom   37 type  1   force =     0.00000000    0.00000000    0.00000000
     atom   38 type  1   force =     0.00000000    0.00000000    0.00000000
     atom   39 type  1   force =     0.00000000    0.00000000    0.00000000
     atom   40 type  1   force =     0.00000000    0.00000000    0.00000000
     atom   41 type  3   force =     0.00000000    0.00000000    0.00000000
     atom   42 type  3   force =     0.00000000    0.00000000    0.00000000
     atom   43 type  3   force =     0.00000000    0.00000000    0.00000000
     atom   44 type  3   force =     0.00000000    0.00000000    0.00000000
     atom   45 type  3   force =     0.00000000    0.00000000    0.00000000
     atom   46 type  3   force =     0.00000000    0.00000000    0.00000000
     atom   47 type  3   force =     0.00000000    0.00000000    0.00000000
     atom   48 type  3   force =     0.00000000    0.00000000    0.00000000
     The SCF correction term to forces
     atom    1 type  1   force =    -0.00000634   -0.00000176   -0.00000167
     atom    2 type  1   force =     0.00000809   -0.00000546   -0.00000148
     atom    3 type  1   force =    -0.00001589    0.00000429   -0.00000283
     atom    4 type  1   force =     0.00001530    0.00000669   -0.00000880
     atom    5 type  2   force =     0.00000733    0.00000825   -0.00000029
     atom    6 type  2   force =    -0.00000533    0.00000782   -0.00001620
     atom    7 type  1   force =     0.00000179    0.00000799   -0.00000237
     atom    8 type  1   force =    -0.00000214   -0.00000203   -0.00000850
     atom    9 type  2   force =    -0.00001622   -0.00000604   -0.00000986
     atom   10 type  2   force =     0.00001661   -0.00001142   -0.00001828
     atom   11 type  1   force =     0.00000095   -0.00001075   -0.00000111
     atom   12 type  1   force =    -0.00000110   -0.00000044   -0.00000594
     atom   13 type  1   force =    -0.00000956    0.00000145    0.00000492
     atom   14 type  1   force =     0.00000945    0.00000205    0.00000446
     atom   15 type  1   force =    -0.00000030   -0.00000092   -0.00000218
     atom   16 type  1   force =     0.00000056   -0.00000134   -0.00000388
     atom   17 type  2   force =    -0.00000619    0.00000192    0.00001194
     atom   18 type  2   force =     0.00000615    0.00000264    0.00001197
     atom   19 type  1   force =     0.00000111   -0.00000478    0.00000429
     atom   20 type  1   force =    -0.00000118   -0.00000926    0.00000434
     atom   21 type  2   force =    -0.00000299   -0.00000221    0.00001175
     atom   22 type  2   force =     0.00000299   -0.00000190    0.00001187
     atom   23 type  1   force =     0.00000092    0.00000544    0.00000438
     atom   24 type  1   force =    -0.00000101    0.00000982    0.00000444
     atom   25 type  1   force =    -0.00000036   -0.00000082    0.00000854
     atom   26 type  1   force =     0.00000062   -0.00000124    0.00000976
     atom   27 type  1   force =    -0.00000968    0.00000132   -0.00000197
     atom   28 type  1   force =     0.00000957    0.00000192   -0.00000145
     atom   29 type  2   force =     0.00000739    0.00000780   -0.00000399
     atom   30 type  2   force =    -0.00000538    0.00000736    0.00001192
     atom   31 type  1   force =     0.00000175    0.00000787    0.00000115
     atom   32 type  1   force =    -0.00000211   -0.00000219    0.00000721
     atom   33 type  2   force =    -0.00001655   -0.00000553    0.00000573
     atom   34 type  2   force =     0.00001697   -0.00001094    0.00001288
     atom   35 type  1   force =     0.00000089   -0.00001048   -0.00000070
     atom   36 type  1   force =    -0.00000106   -0.00000015    0.00000410
     atom   37 type  1   force =    -0.00001600    0.00000412   -0.00000009
     atom   38 type  1   force =     0.00001542    0.00000649    0.00000585
     atom   39 type  1   force =    -0.00000646   -0.00000163   -0.00000056
     atom   40 type  1   force =     0.00000818   -0.00000535   -0.00000082
     atom   41 type  3   force =     0.00000005   -0.00000026   -0.00000035
     atom   42 type  3   force =     0.00000007   -0.00000024    0.00000002
     atom   43 type  3   force =    -0.00000133    0.00000062   -0.00000033
     atom   44 type  3   force =    -0.00000134    0.00000060   -0.00000005
     atom   45 type  3   force =     0.00000161    0.00000060   -0.00000031
     atom   46 type  3   force =     0.00000162    0.00000058   -0.00000007
     atom   47 type  3   force =    -0.00000155   -0.00000008   -0.00000076
     atom   48 type  3   force =    -0.00000157   -0.00000011    0.00000040

     Total force =     0.021406     Total SCF correction =     0.000081

     BFGS Geometry Optimization
     Energy error            =      0.0E+00 Ry
     Gradient error          =      7.4E-03 Ry/Bohr

     number of scf cycles    =   1
     number of bfgs steps    =   0

     energy             new  =   -3437.6391995880 Ry

     new trust radius        =       0.0085633009 bohr
     new conv_thr            =       0.0000000010 Ry


ATOMIC_POSITIONS (crystal)
O             0.0152227343        0.4253840660        0.2637106443
O             0.4801461210        0.4523877947        0.2718224020
O            -0.0032557281        0.0084613619        0.2985878299
O             0.4981957013        0.0022349055        0.3007612815
Ru            0.2506829834       -0.0062984825        0.3588030026
Ru            0.7452566531       -0.0063879015        0.3587329784
O             0.2458155323        0.3055724324        0.3633266772
O             0.7507419989        0.3067916357        0.3615598646
Ru           -0.0005307796        0.4928087733        0.3602200011
Ru            0.4995569620        0.4939992524        0.3513373807
O             0.2434381331        0.6829234960        0.3526121961
O             0.7530236427        0.6815829099        0.3517085163
O            -0.0023831219       -0.0105532709        0.4111374776
O             0.4980527783       -0.0069742721        0.4114234403
O             0.0003388404        0.5108932919        0.4469031677
O             0.4988059416        0.5096455534        0.4427653877
Ru           -0.0027465790        0.0070860515        0.5000010000
Ru            0.4969035710        0.0074937704        0.5000010000
O             0.2460701360        0.1939788815        0.5000010000
O             0.7456352018        0.1943381169        0.5000010000
Ru            0.2556704396        0.5083060502        0.5000010000
Ru            0.7496928974        0.5081794327        0.5000010000
O             0.2469758406        0.8222165442        0.5000010000
O             0.7451079545        0.8216762140        0.5000010000
O             0.0003388404        0.5108932919        0.5530978323
O             0.4988059416        0.5096455534        0.5572356123
O            -0.0023831219       -0.0105532709        0.5888635224
O             0.4980527783       -0.0069742721        0.5885775597
Ru            0.2506829834       -0.0062984825        0.6411979974
Ru            0.7452566531       -0.0063879015        0.6412680216
O             0.2458155323        0.3055724324        0.6366743228
O             0.7507419989        0.3067916357        0.6384411354
Ru           -0.0005307796        0.4928087733        0.6397809989
Ru            0.4995569620        0.4939992524        0.6486636193
O             0.2434381331        0.6829234960        0.6473888039
O             0.7530236427        0.6815829099        0.6482924837
O            -0.0032557281        0.0084613619        0.7014141701
O             0.4981957013        0.0022349055        0.6992407185
O             0.0152227343        0.4253840660        0.7362903557
O             0.4801461210        0.4523877947        0.7281785980
H             0.1594163679        0.4479875075        0.2524141141
H             0.1594163679        0.4479875075        0.7475858859
H             0.0008922103        0.2552761237        0.2693337108
H             0.0008922103        0.2552761237        0.7306662892
H             0.4968494817        0.1378958486        0.2746221495
H             0.4968494817        0.1378958486        0.7253778505
H            -0.0042861837        0.8989484436        0.2656180474
H            -0.0042861837        0.8989484436        0.7343819526



     Writing config-only to output data dir /storage/home/mgm6007/ixd4/Maria/Strain1_Files/RuO2-110-0-0234/RuO2-110-0-0234.save/
     NEW-OLD atomic charge density approx. for the potential

     Check: negative core charge=   -0.000001

     negative rho (up, down):  1.349E-04 0.000E+00

     add environment contribution to local potential
     Polarization accuracy = 7.8E-12, # of iterations =  45

     total cpu time spent up to now is    17131.9 secs

     per-process dynamical memory:   215.6 Mb

     Self-consistent Calculation

     iteration #  1     ecut=    50.00 Ry     beta= 0.70
     Davidson diagonalization with overlap
     ethr =  1.00E-06,  avg # of iterations =  3.0

     Threshold (ethr) on eigenvalues was too large:
     Diagonalizing with lowered threshold

     Davidson diagonalization with overlap
     ethr =  2.79E-08,  avg # of iterations =  2.0

     negative rho (up, down):  1.198E-04 0.000E+00

     add environment contribution to local potential
     Polarization accuracy = 4.6E-12, # of iterations =  45

     total cpu time spent up to now is    17264.7 secs

     total energy              =   -3437.63958738 Ry
     estimated scf accuracy    <       0.00010593 Ry
     electrostatic embedding   =      -0.05086526 Ry
     cavitation energy         =       0.02099748 Ry
     PV energy                 =      -0.08105869 Ry
     correction to one-el term =     186.72427311 Ry

     iteration #  2     ecut=    50.00 Ry     beta= 0.70
     Davidson diagonalization with overlap
     ethr =  2.88E-08,  avg # of iterations =  1.0

     negative rho (up, down):  1.202E-04 0.000E+00

     add environment contribution to local potential
     Polarization accuracy = 2.9E-12, # of iterations =  45

     total cpu time spent up to now is    17409.8 secs

     total energy              =   -3437.63958932 Ry
     estimated scf accuracy    <       0.00020567 Ry
     electrostatic embedding   =      -0.05075590 Ry
     cavitation energy         =       0.02099730 Ry
     PV energy                 =      -0.08106312 Ry
     correction to one-el term =     186.72435973 Ry

     iteration #  3     ecut=    50.00 Ry     beta= 0.70
     Davidson diagonalization with overlap
     ethr =  2.88E-08,  avg # of iterations =  1.0

     negative rho (up, down):  1.112E-04 0.000E+00

     add environment contribution to local potential
     Polarization accuracy = 2.7E-12, # of iterations =  46

     total cpu time spent up to now is    17535.3 secs

     total energy              =   -3437.63960069 Ry
     estimated scf accuracy    <       0.00001767 Ry
     electrostatic embedding   =      -0.05074756 Ry
     cavitation energy         =       0.02099759 Ry
     PV energy                 =      -0.08106232 Ry
     correction to one-el term =     186.73034067 Ry

     iteration #  4     ecut=    50.00 Ry     beta= 0.70
     Davidson diagonalization with overlap
     ethr =  4.80E-09,  avg # of iterations =  2.0

     negative rho (up, down):  1.083E-04 0.000E+00

     add environment contribution to local potential
     Polarization accuracy = 2.8E-12, # of iterations =  45

     total cpu time spent up to now is    17662.9 secs

     total energy              =   -3437.63960091 Ry
     estimated scf accuracy    <       0.00000574 Ry
     electrostatic embedding   =      -0.05068324 Ry
     cavitation energy         =       0.02099789 Ry
     PV energy                 =      -0.08106339 Ry
     correction to one-el term =     186.73204681 Ry

     iteration #  5     ecut=    50.00 Ry     beta= 0.70
     Davidson diagonalization with overlap
     ethr =  1.56E-09,  avg # of iterations =  1.0

     negative rho (up, down):  1.078E-04 0.000E+00

     add environment contribution to local potential
     Polarization accuracy = 7.4E-12, # of iterations =  45

     total cpu time spent up to now is    17803.7 secs

     total energy              =   -3437.63960113 Ry
     estimated scf accuracy    <       0.00000169 Ry
     electrostatic embedding   =      -0.05065589 Ry
     cavitation energy         =       0.02099820 Ry
     PV energy                 =      -0.08106339 Ry
     correction to one-el term =     186.73383440 Ry

     iteration #  6     ecut=    50.00 Ry     beta= 0.70
     Davidson diagonalization with overlap
     ethr =  4.59E-10,  avg # of iterations =  2.0

     negative rho (up, down):  1.087E-04 0.000E+00

     add environment contribution to local potential
     Polarization accuracy = 3.8E-12, # of iterations =  45

     total cpu time spent up to now is    17930.3 secs

     total energy              =   -3437.63960109 Ry
     estimated scf accuracy    <       0.00000059 Ry
     electrostatic embedding   =      -0.05063773 Ry
     cavitation energy         =       0.02099839 Ry
     PV energy                 =      -0.08106313 Ry
     correction to one-el term =     186.73546204 Ry

     iteration #  7     ecut=    50.00 Ry     beta= 0.70
     Davidson diagonalization with overlap
     ethr =  1.60E-10,  avg # of iterations =  1.5

     negative rho (up, down):  1.112E-04 0.000E+00

     add environment contribution to local potential
     Polarization accuracy = 2.7E-12, # of iterations =  45

     total cpu time spent up to now is    18062.5 secs

     total energy              =   -3437.63960104 Ry
     estimated scf accuracy    <       0.00000029 Ry
     electrostatic embedding   =      -0.05062503 Ry
     cavitation energy         =       0.02099849 Ry
     PV energy                 =      -0.08106284 Ry
     correction to one-el term =     186.73719469 Ry

     iteration #  8     ecut=    50.00 Ry     beta= 0.70
     Davidson diagonalization with overlap
     ethr =  7.78E-11,  avg # of iterations =  2.0

     negative rho (up, down):  1.141E-04 0.000E+00

     add environment contribution to local potential
     Polarization accuracy = 3.7E-12, # of iterations =  45

     total cpu time spent up to now is    18202.9 secs

     total energy              =   -3437.63960098 Ry
     estimated scf accuracy    <       0.00000010 Ry
     electrostatic embedding   =      -0.05060773 Ry
     cavitation energy         =       0.02099852 Ry
     PV energy                 =      -0.08106251 Ry
     correction to one-el term =     186.73975358 Ry

     iteration #  9     ecut=    50.00 Ry     beta= 0.70
[...]
     atom   20 type  1   force =    -0.00010425   -0.00050252   -0.00000209
     atom   21 type  2   force =     0.00000000    0.00000000    0.00000000
     atom   22 type  2   force =     0.00000000    0.00000000    0.00000000
     atom   23 type  1   force =    -0.00045616    0.00056307   -0.00000196
     atom   24 type  1   force =    -0.00004651    0.00051657   -0.00000196
     atom   25 type  1   force =     0.00044668    0.00057437   -0.00228382
     atom   26 type  1   force =     0.00020312    0.00076016    0.00222290
     atom   27 type  1   force =     0.00008989   -0.00066025    0.00023232
     atom   28 type  1   force =     0.00023046   -0.00031922   -0.00040412
     atom   29 type  2   force =     0.00000000    0.00000000    0.00000000
     atom   30 type  2   force =     0.00000000    0.00000000    0.00000000
     atom   31 type  1   force =    -0.00003097    0.00003897   -0.00235045
     atom   32 type  1   force =     0.00082369    0.00018303   -0.00157545
     atom   33 type  2   force =     0.00000000    0.00000000    0.00000000
     atom   34 type  2   force =     0.00000000    0.00000000    0.00000000
     atom   35 type  1   force =    -0.00021604   -0.00002504    0.00076120
     atom   36 type  1   force =     0.00106329   -0.00017889    0.00119290
     atom   37 type  1   force =     0.00006083    0.01253267   -0.00496385
     atom   38 type  1   force =     0.00013430   -0.01410156    0.00093469
     atom   39 type  1   force =    -0.01289304    0.01244057    0.00415943
     atom   40 type  1   force =     0.00011219   -0.00006269    0.00954177
     atom   41 type  3   force =     0.00000000    0.00000000    0.00000000
     atom   42 type  3   force =     0.00000000    0.00000000    0.00000000
     atom   43 type  3   force =     0.00000000    0.00000000    0.00000000
     atom   44 type  3   force =     0.00000000    0.00000000    0.00000000
     atom   45 type  3   force =     0.00000000    0.00000000    0.00000000
     atom   46 type  3   force =     0.00000000    0.00000000    0.00000000
     atom   47 type  3   force =     0.00000000    0.00000000    0.00000000
     atom   48 type  3   force =     0.00000000    0.00000000    0.00000000
     The Hubbard contrib.    to forces
     atom    1 type  1   force =     0.00000000    0.00000000    0.00000000
     atom    2 type  1   force =     0.00000000    0.00000000    0.00000000
     atom    3 type  1   force =     0.00000000    0.00000000    0.00000000
     atom    4 type  1   force =     0.00000000    0.00000000    0.00000000
     atom    5 type  2   force =     0.00000000    0.00000000    0.00000000
     atom    6 type  2   force =     0.00000000    0.00000000    0.00000000
     atom    7 type  1   force =     0.00000000    0.00000000    0.00000000
     atom    8 type  1   force =     0.00000000    0.00000000    0.00000000
     atom    9 type  2   force =     0.00000000    0.00000000    0.00000000
     atom   10 type  2   force =     0.00000000    0.00000000    0.00000000
     atom   11 type  1   force =     0.00000000    0.00000000    0.00000000
     atom   12 type  1   force =     0.00000000    0.00000000    0.00000000
     atom   13 type  1   force =     0.00000000    0.00000000    0.00000000
     atom   14 type  1   force =     0.00000000    0.00000000    0.00000000
     atom   15 type  1   force =     0.00000000    0.00000000    0.00000000
     atom   16 type  1   force =     0.00000000    0.00000000    0.00000000
     atom   17 type  2   force =     0.00000000    0.00000000    0.00000000
     atom   18 type  2   force =     0.00000000    0.00000000    0.00000000
     atom   19 type  1   force =     0.00000000    0.00000000    0.00000000
     atom   20 type  1   force =     0.00000000    0.00000000    0.00000000
     atom   21 type  2   force =     0.00000000    0.00000000    0.00000000
     atom   22 type  2   force =     0.00000000    0.00000000    0.00000000
     atom   23 type  1   force =     0.00000000    0.00000000    0.00000000
     atom   24 type  1   force =     0.00000000    0.00000000    0.00000000
     atom   25 type  1   force =     0.00000000    0.00000000    0.00000000
     atom   26 type  1   force =     0.00000000    0.00000000    0.00000000
     atom   27 type  1   force =     0.00000000    0.00000000    0.00000000
     atom   28 type  1   force =     0.00000000    0.00000000    0.00000000
     atom   29 type  2   force =     0.00000000    0.00000000    0.00000000
     atom   30 type  2   force =     0.00000000    0.00000000    0.00000000
     atom   31 type  1   force =     0.00000000    0.00000000    0.00000000
     atom   32 type  1   force =     0.00000000    0.00000000    0.00000000
     atom   33 type  2   force =     0.00000000    0.00000000    0.00000000
     atom   34 type  2   force =     0.00000000    0.00000000    0.00000000
     atom   35 type  1   force =     0.00000000    0.00000000    0.00000000
     atom   36 type  1   force =     0.00000000    0.00000000    0.00000000
     atom   37 type  1   force =     0.00000000    0.00000000    0.00000000
     atom   38 type  1   force =     0.00000000    0.00000000    0.00000000
     atom   39 type  1   force =     0.00000000    0.00000000    0.00000000
     atom   40 type  1   force =     0.00000000    0.00000000    0.00000000
     atom   41 type  3   force =     0.00000000    0.00000000    0.00000000
     atom   42 type  3   force =     0.00000000    0.00000000    0.00000000
     atom   43 type  3   force =     0.00000000    0.00000000    0.00000000
     atom   44 type  3   force =     0.00000000    0.00000000    0.00000000
     atom   45 type  3   force =     0.00000000    0.00000000    0.00000000
     atom   46 type  3   force =     0.00000000    0.00000000    0.00000000
     atom   47 type  3   force =     0.00000000    0.00000000    0.00000000
     atom   48 type  3   force =     0.00000000    0.00000000    0.00000000
     The SCF correction term to forces
     atom    1 type  1   force =    -0.00000036    0.00000034    0.00000168
     atom    2 type  1   force =    -0.00000020    0.00000035    0.00000069
     atom    3 type  1   force =     0.00000097   -0.00000070    0.00000032
     atom    4 type  1   force =    -0.00000104   -0.00000068    0.00000117
     atom    5 type  2   force =    -0.00000275   -0.00000080    0.00000164
     atom    6 type  2   force =     0.00000268   -0.00000080    0.00000218
     atom    7 type  1   force =    -0.00000172   -0.00000021    0.00000123
     atom    8 type  1   force =     0.00000174    0.00000084    0.00000113
     atom    9 type  2   force =     0.00000055    0.00000086    0.00000225
     atom   10 type  2   force =    -0.00000039    0.00000084    0.00000465
     atom   11 type  1   force =    -0.00000192    0.00000057    0.00000116
     atom   12 type  1   force =     0.00000184   -0.00000056    0.00000081
     atom   13 type  1   force =     0.00000083   -0.00000018   -0.00000008
     atom   14 type  1   force =    -0.00000080   -0.00000016    0.00000051
     atom   15 type  1   force =    -0.00000018    0.00000006   -0.00000016
     atom   16 type  1   force =    -0.00000005    0.00000003    0.00000103
     atom   17 type  2   force =     0.00000050   -0.00000003    0.00000005
     atom   18 type  2   force =    -0.00000039   -0.00000016    0.00000005
     atom   19 type  1   force =    -0.00000050    0.00000073    0.00000002
     atom   20 type  1   force =     0.00000046    0.00000110    0.00000002
     atom   21 type  2   force =    -0.00000120    0.00000019    0.00000005
     atom   22 type  2   force =     0.00000141    0.00000009    0.00000005
     atom   23 type  1   force =    -0.00000042   -0.00000088    0.00000002
     atom   24 type  1   force =     0.00000039   -0.00000118    0.00000002
     atom   25 type  1   force =    -0.00000018    0.00000006    0.00000019
     atom   26 type  1   force =    -0.00000005    0.00000003   -0.00000100
     atom   27 type  1   force =     0.00000083   -0.00000018    0.00000011
     atom   28 type  1   force =    -0.00000080   -0.00000016   -0.00000048
     atom   29 type  2   force =    -0.00000275   -0.00000080   -0.00000162
     atom   30 type  2   force =     0.00000268   -0.00000080   -0.00000215
     atom   31 type  1   force =    -0.00000172   -0.00000022   -0.00000122
     atom   32 type  1   force =     0.00000174    0.00000084   -0.00000112
     atom   33 type  2   force =     0.00000055    0.00000086   -0.00000222
     atom   34 type  2   force =    -0.00000039    0.00000084   -0.00000463
     atom   35 type  1   force =    -0.00000192    0.00000058   -0.00000115
     atom   36 type  1   force =     0.00000184   -0.00000056   -0.00000080
     atom   37 type  1   force =     0.00000097   -0.00000070   -0.00000033
     atom   38 type  1   force =    -0.00000104   -0.00000068   -0.00000118
     atom   39 type  1   force =    -0.00000036    0.00000034   -0.00000169
     atom   40 type  1   force =    -0.00000020    0.00000035   -0.00000069
     atom   41 type  3   force =    -0.00000023    0.00000004    0.00000018
     atom   42 type  3   force =    -0.00000023    0.00000004   -0.00000018
     atom   43 type  3   force =     0.00000001   -0.00000005    0.00000021
     atom   44 type  3   force =     0.00000001   -0.00000005   -0.00000021
     atom   45 type  3   force =    -0.00000008   -0.00000012    0.00000010
     atom   46 type  3   force =    -0.00000008   -0.00000012   -0.00000011
     atom   47 type  3   force =     0.00000007   -0.00000000    0.00000020
     atom   48 type  3   force =     0.00000007   -0.00000000   -0.00000021

     Total force =     0.001583     Total SCF correction =     0.000013
     Energy error            =      5.2E-06 Ry
     Gradient error          =      5.2E-04 Ry/Bohr

     number of scf cycles    =  32
     number of bfgs steps    =  31

     energy             old  =   -3437.6438815000 Ry
     energy             new  =   -3437.6438866589 Ry

     CASE: energy            _new < energy            _old

     new trust radius        =       0.0029043326 bohr
     new conv_thr            =            1.0E-11 Ry


ATOMIC_POSITIONS (crystal)
O             0.0351099589        0.4373461037        0.2623637814
O             0.4711807106        0.4422916138        0.2719545620
O            -0.0045059049        0.0111214275        0.2991284243
O             0.4940923407       -0.0004227840        0.3011096469
Ru            0.2476055089       -0.0071458807        0.3594337625
Ru            0.7433117804       -0.0077741718        0.3587032489
O             0.2450571801        0.3044339505        0.3645820543
O             0.7506492326        0.3056335484        0.3606141978
Ru            0.0001585136        0.4916547702        0.3596572312
Ru            0.4996989198        0.4925014465        0.3514775340
O             0.2442111533        0.6820651683        0.3529000346
O             0.7515858580        0.6797072101        0.3504635701
O            -0.0067428002       -0.0110990626        0.4113523590
O             0.4960805697       -0.0091153273        0.4115237466
O            -0.0041353805        0.5097623228        0.4465600315
O             0.4963528718        0.5083197379        0.4430763720
Ru           -0.0071240749        0.0055979079        0.5000010000
Ru            0.4930084363        0.0058740846        0.5000010000
O             0.2413634683        0.1925354457        0.5000010000
O             0.7417815876        0.1928403703        0.5000010000
Ru            0.2515282351        0.5067515073        0.5000010000
Ru            0.7462854885        0.5066936309        0.5000010000
O             0.2423518099        0.8206599796        0.5000010000
O             0.7413346790        0.8201507578        0.5000010000
O            -0.0041353805        0.5097623228        0.5534409685
O             0.4963528718        0.5083197379        0.5569246280
O            -0.0067428002       -0.0110990626        0.5886486410
O             0.4960805697       -0.0091153273        0.5884772534
Ru            0.2476055089       -0.0071458807        0.6405672375
Ru            0.7433117804       -0.0077741718        0.6412977511
O             0.2450571801        0.3044339505        0.6354189457
O             0.7506492326        0.3056335484        0.6393868022
Ru            0.0001585136        0.4916547702        0.6403437688
Ru            0.4996989198        0.4925014465        0.6485234660
O             0.2442111533        0.6820651683        0.6471009654
O             0.7515858580        0.6797072101        0.6495374299
O            -0.0045059049        0.0111214275        0.7008735757
O             0.4940923407       -0.0004227840        0.6988923531
O             0.0351099589        0.4373461037        0.7376372186
O             0.4711807106        0.4422916138        0.7280464380
H             0.1851787317        0.4509252156        0.2558299467
H             0.1851787317        0.4509252156        0.7441700533
H             0.0105127123        0.2702393570        0.2630324549
H             0.0105127123        0.2702393570        0.7369675451
H             0.4922931263        0.1408151853        0.2768585593
H             0.4922931263        0.1408151853        0.7231414407
H            -0.0053248981        0.8974053267        0.2672395911
H            -0.0053248981        0.8974053267        0.7327604089



     Writing config-only to output data dir /storage/home/mgm6007/ixd4/Maria/Strain1_Files/RuO2-110-0-0234/RuO2-110-0-0234.save/
     NEW-OLD atomic charge density approx. for the potential

     Check: negative core charge=   -0.000001

     negative rho (up, down):  1.349E-04 0.000E+00

     add environment contribution to local potential
     Polarization accuracy = 2.3E-12, # of iterations =  45

     total cpu time spent up to now is   206210.3 secs

     per-process dynamical memory:   215.6 Mb

     Self-consistent Calculation

     iteration #  1     ecut=    50.00 Ry     beta= 0.70
     Davidson diagonalization with overlap
     ethr =  1.00E-06,  avg # of iterations =  2.0

     Threshold (ethr) on eigenvalues was too large:
     Diagonalizing with lowered threshold

     Davidson diagonalization with overlap
     ethr =  1.16E-09,  avg # of iterations =  5.0

     negative rho (up, down):  1.353E-04 0.000E+00

     add environment contribution to local potential
     Polarization accuracy = 2.5E-12, # of iterations =  45

     total cpu time spent up to now is   206358.3 secs

     total energy              =   -3437.64388943 Ry
     estimated scf accuracy    <       0.00000566 Ry
     electrostatic embedding   =      -0.04432411 Ry
     cavitation energy         =       0.02113190 Ry
     PV energy                 =      -0.08095595 Ry
     correction to one-el term =     188.26451615 Ry

     iteration #  2     ecut=    50.00 Ry     beta= 0.70
     Davidson diagonalization with overlap
     ethr =  1.54E-09,  avg # of iterations =  2.0

     negative rho (up, down):  1.343E-04 0.000E+00

     add environment contribution to local potential
     Polarization accuracy = 4.8E-12, # of iterations =  45

     total cpu time spent up to now is   206488.3 secs

     total energy              =   -3437.64388956 Ry
     estimated scf accuracy    <       0.00000736 Ry
     electrostatic embedding   =      -0.04430477 Ry
     cavitation energy         =       0.02113080 Ry
     PV energy                 =      -0.08095666 Ry
     correction to one-el term =     188.26756336 Ry

     iteration #  3     ecut=    50.00 Ry     beta= 0.70
     Davidson diagonalization with overlap
     ethr =  1.54E-09,  avg # of iterations =  1.0

     negative rho (up, down):  1.340E-04 0.000E+00

     add environment contribution to local potential
     Polarization accuracy = 2.6E-12, # of iterations =  45

     total cpu time spent up to now is   206631.8 secs

     total energy              =   -3437.64388998 Ry
     estimated scf accuracy    <       0.00000120 Ry
     electrostatic embedding   =      -0.04429633 Ry
     cavitation energy         =       0.02113056 Ry
     PV energy                 =      -0.08095707 Ry
     correction to one-el term =     188.26699570 Ry

     iteration #  4     ecut=    50.00 Ry     beta= 0.70
     Davidson diagonalization with overlap
     ethr =  3.25E-10,  avg # of iterations =  2.0

     negative rho (up, down):  1.339E-04 0.000E+00

     add environment contribution to local potential
     Polarization accuracy = 2.3E-12, # of iterations =  46

     total cpu time spent up to now is   206778.3 secs

     total energy              =   -3437.64389015 Ry
     estimated scf accuracy    <       0.00000030 Ry
     electrostatic embedding   =      -0.04427997 Ry
     cavitation energy         =       0.02113007 Ry
     PV energy                 =      -0.08095739 Ry
     correction to one-el term =     188.26848611 Ry

     iteration #  5     ecut=    50.00 Ry     beta= 0.70
     Davidson diagonalization with overlap
     ethr =  8.24E-11,  avg # of iterations =  2.0

     negative rho (up, down):  1.339E-04 0.000E+00

     add environment contribution to local potential
     Polarization accuracy = 8.3E-12, # of iterations =  45

     total cpu time spent up to now is   206912.0 secs

     total energy              =   -3437.64389020 Ry
     estimated scf accuracy    <       0.00000003 Ry
     electrostatic embedding   =      -0.04427554 Ry
     cavitation energy         =       0.02113000 Ry
     PV energy                 =      -0.08095740 Ry
     correction to one-el term =     188.26885618 Ry

     iteration #  6     ecut=    50.00 Ry     beta= 0.70
     Davidson diagonalization with overlap
     ethr =  9.41E-12,  avg # of iterations =  2.0

     negative rho (up, down):  1.340E-04 0.000E+00

     add environment contribution to local potential
     Polarization accuracy = 2.2E-12, # of iterations =  46

     total cpu time spent up to now is   207039.1 secs

     total energy              =   -3437.64389023 Ry
     estimated scf accuracy    <       0.00000002 Ry
     electrostatic embedding   =      -0.04427163 Ry
     cavitation energy         =       0.02113000 Ry
     PV energy                 =      -0.08095735 Ry
     correction to one-el term =     188.26928013 Ry

     iteration #  7     ecut=    50.00 Ry     beta= 0.70
     Davidson diagonalization with overlap
     ethr =  5.97E-12,  avg # of iterations =  2.0

     negative rho (up, down):  1.342E-04 0.000E+00

     add environment contribution to local potential
     Polarization accuracy = 2.2E-12, # of iterations =  46

     total cpu time spent up to now is   207161.1 secs

     total energy              =   -3437.64389025 Ry
     estimated scf accuracy    <          8.5E-09 Ry
     electrostatic embedding   =      -0.04426773 Ry
     cavitation energy         =       0.02113001 Ry
     PV energy                 =      -0.08095731 Ry
     correction to one-el term =     188.26971442 Ry

     iteration #  8     ecut=    50.00 Ry     beta= 0.70
     Davidson diagonalization with overlap
     ethr =  2.32E-12,  avg # of iterations =  2.0

     negative rho (up, down):  1.345E-04 0.000E+00

     add environment contribution to local potential
     Polarization accuracy = 2.2E-12, # of iterations =  45

     total cpu time spent up to now is   207282.3 secs

     total energy              =   -3437.64389027 Ry
     estimated scf accuracy    <          4.3E-09 Ry
     electrostatic embedding   =      -0.04426405 Ry
     cavitation energy         =       0.02113001 Ry
     PV energy                 =      -0.08095729 Ry
     correction to one-el term =     188.27019674 Ry

     iteration #  9     ecut=    50.00 Ry     beta= 0.70
     Davidson diagonalization with overlap
     ethr =  1.18E-12,  avg # of iterations =  2.0

     negative rho (up, down):  1.348E-04 0.000E+00

     add environment contribution to local potential
     Polarization accuracy = 4.5E-12, # of iterations =  45
