
     Program PWSCF v.7.2 starts on 21Jul2023 at 17: 3: 5 
        Git branch: heads/qe-7.2
        Last git commit: b4c5e8deeb7d1863e7553a87b45f8d22c21926a5
        Last git commit date: Mon Mar 27 16:12:09 2023 +0000
        Last git commit subject: Merge branch 'merge_fix_hubbard' into 'develop'

     This program is part of the open-source Quantum ESPRESSO suite
     for quantum simulation of materials; please cite
         "P. Giannozzi et al., J. Phys.:Condens. Matter 21 395502 (2009);
         "P. Giannozzi et al., J. Phys.:Condens. Matter 29 465901 (2017);
         "P. Giannozzi et al., J. Chem. Phys. 152 154105 (2020);
          URL http://www.quantum-espresso.org", 
     in publications or presentations arising from this work. More details at
     http://www.quantum-espresso.org/quote

     Parallel version (MPI), running on    20 processors

     MPI processes distributed on     1 nodes
     110940 MiB available memory on the printing compute node when the environment starts
 
     Reading input from RuO2-110-0-03.in

     Current dimensions of program PWSCF are:
     Max number of different atomic species (ntypx) = 10
     Max number of k-points (npk) =  40000
     Max angular momentum in pseudopotentials (lmaxx) =  4
 
     Reading input from environ.in:
     * Environ restarting
     * setting up water environment
     * using electronic solvent mode
     * setting boundary derivatives method to SCCS default
     
     file O.pbe-n-kjpaw_psl.0.1.UPF: wavefunction(s)  2P renormalized
     Message from routine setup:
     using ibrav=0 with symmetry is DISCOURAGED, use correct ibrav instead
 
     R & G space division:  proc/nbgrp/npool/nimage =      20
     Subspace diagonalization in iterative solution of the eigenvalue problem:
     one sub-group per band group will be used
     scalapack distributed-memory algorithm (size of sub-group:  2*  2 procs)

 
     Parallelization info
     --------------------
     sticks:   dense  smooth     PW     G-vecs:    dense   smooth      PW
     Min         279     111     29                55537    14039    1893
     Max         280     112     30                55546    14052    1904
     Sum        5595    2237    595              1110843   280917   37967
 
     Using Slab Decomposition
 


     bravais-lattice index     =            0
     lattice parameter (alat)  =      12.2467  a.u.
     unit-cell volume          =    5883.2137 (a.u.)^3
     number of atoms/cell      =           44
     number of atomic types    =            3
     number of electrons       =       364.00
     number of Kohn-Sham states=          218
     kinetic-energy cutoff     =      50.0000  Ry
     charge density cutoff     =     500.0000  Ry
     scf convergence threshold =      1.0E-09
     mixing beta               =       0.7000
     number of iterations used =            8  local-TF  mixing
     energy convergence thresh.=      1.0E-04
     force convergence thresh. =      1.0E-04
     Exchange-correlation= PBE
                           (   1   4   3   4   0   0   0)
     nstep                     =          200


     ================================================================================
 
                                  Environ Setup Summary

     ================================================================================
 
     Please cite

          O. Andreussi, I. Dabo and N. Marzari, J. Chem. Phys. 136, 064102 (2012)

     in publications or presentations arising from this work.

     ================================================================================
 
     Parameters
     ==========

     compensation onset threshold      =               0.1000E+00
     static permittivity               =                    78.30
     surface tension in input (dyn/cm) =                    47.90
     surface tension in internal units =               0.6153E-04
     external pressure in input (GPa)  =                    -0.36
     external pressure in inter. units =              -0.2447E-04

     Solvent Boundary
     ================

     solvent mode                      =               electronic
     derivatives method                =                    chain
     numerical core for derivatives    =                      fft
     switching function adopted        =                     SCCS
     density limit for vacuum region   =               0.5000E-02
     density limit for bulk solvent    =               0.1000E-03

     Electrostatic Setup
     ===================

     electrostatic problem to solve    =              generalized
     numerical solver adopted          =                       cg
     type of auxiliary density adopted =                     none
     numerical core for poisson        =                      fft
     type of pbc corrections           =                parabolic
     numerical core for corrections    =                      1da

     ================================================================================
 

     celldm(1)=  12.246684  celldm(2)=   0.000000  celldm(3)=   0.000000
     celldm(4)=   0.000000  celldm(5)=   0.000000  celldm(6)=   0.000000

     crystal axes: (cart. coord. in units of alat)
               a(1) = (   1.000000   0.000000   0.000000 )  
               a(2) = (   0.000000   0.937861   0.000000 )  
               a(3) = (   0.000000   0.000000   3.415235 )  

     reciprocal axes: (cart. coord. in units 2 pi/alat)
               b(1) = (  1.000000  0.000000  0.000000 )  
               b(2) = (  0.000000  1.066256  0.000000 )  
               b(3) = (  0.000000  0.000000  0.292806 )  


     PseudoPot. # 1 for O  read from file:
     /gpfs/group/ixd4/default/Simon/pseudopotentials/materialscloud/SSSP_1.3.0_PBE_efficiency/O.pbe-n-kjpaw_psl.0.1.UPF
     MD5 check sum: 0234752ac141de4415c5fc33072bef88
     Pseudo is Projector augmented-wave + core cor, Zval =  6.0
     Generated using "atomic" code by A. Dal Corso  v.5.0.99 svn rev. 10869
     Shape of augmentation charge: BESSEL
     Using radial grid of 1095 points,  4 beta functions with: 
                l(1) =   0
                l(2) =   0
                l(3) =   1
                l(4) =   1
     Q(r) pseudized with 0 coefficients 


     PseudoPot. # 2 for Ru read from file:
     /gpfs/group/ixd4/default/Simon/pseudopotentials/materialscloud/SSSP_1.3.0_PBE_efficiency/Ru_ONCV_PBE-1.0.oncvpsp.upf
     MD5 check sum: be037bb81c227cfb9b1461a9f099f4bd
     Pseudo is Norm-conserving, Zval = 16.0
     Generated using ONCVPSP code by D. R. Hamann
     Using radial grid of 1458 points,  6 beta functions with: 
                l(1) =   0
                l(2) =   0
                l(3) =   1
                l(4) =   1
                l(5) =   2
                l(6) =   2

     PseudoPot. # 3 for H  read from file:
     /gpfs/group/ixd4/default/Simon/pseudopotentials/materialscloud/SSSP_1.3.0_PBE_efficiency/H.pbe-rrkjus_psl.1.0.0.UPF
     MD5 check sum: f52b6d4d1c606e5624b1dc7b2218f220
     Pseudo is Ultrasoft, Zval =  1.0
     Generated using "atomic" code by A. Dal Corso  v.5.1
     Using radial grid of  929 points,  2 beta functions with: 
                l(1) =   0
                l(2) =   0
     Q(r) pseudized with 0 coefficients 


     atomic species   valence    mass     pseudopotential
        O              6.00    15.99940     O ( 1.00)
        Ru            16.00   101.07000     Ru( 1.00)
        H              1.00     1.00794     H ( 1.00)

      2 Sym. Ops. (no inversion) found



   Cartesian axes

     site n.     atom                  positions (alat units)
         1           O   tau(   1) = (   0.0070050   0.4718703   0.9278482  )
         2           O   tau(   2) = (   0.4780830   0.4715476   0.9356603  )
         3           O   tau(   3) = (  -0.0008723   0.0007439   1.0548004  )
         4           O   tau(   4) = (   0.4968080  -0.0012337   1.0247496  )
         5           Ru  tau(   5) = (   0.2439411   0.0025546   1.2187565  )
         6           Ru  tau(   6) = (   0.7519411   0.0027915   1.2162433  )
         7           O   tau(   7) = (   0.2475600   0.2877026   1.2264008  )
         8           O   tau(   8) = (   0.7517832   0.2912812   1.2179682  )
         9           Ru  tau(   9) = (   0.0021863   0.4713430   1.2229765  )
        10           Ru  tau(  10) = (   0.5036744   0.4718991   1.1998064  )
        11           O   tau(  11) = (   0.2472539   0.6546535   1.2272936  )
        12           O   tau(  12) = (   0.7520493   0.6511551   1.2195168  )
        13           O   tau(  13) = (  -0.0035063   0.0015866   1.4070487  )
        14           O   tau(  14) = (   0.5016083   0.0021199   1.4085326  )
        15           O   tau(  15) = (  -0.0000773   0.4706354   1.5242702  )
        16           O   tau(  16) = (   0.4963743   0.4708404   1.5059111  )
        17           Ru  tau(  17) = (  -0.0047399   0.0023175   1.7076210  )
        18           Ru  tau(  18) = (   0.5013209   0.0014598   1.7076210  )
        19           O   tau(  19) = (   0.2503017   0.1806179   1.7076210  )
        20           O   tau(  20) = (   0.7467070   0.1872475   1.7076210  )
        21           Ru  tau(  21) = (   0.2552587   0.4705618   1.7076210  )
        22           Ru  tau(  22) = (   0.7439240   0.4706785   1.7076210  )
        23           O   tau(  23) = (   0.2503588   0.7609728   1.7076210  )
        24           O   tau(  24) = (   0.7465549   0.7542510   1.7076210  )
        25           O   tau(  25) = (  -0.0000773   0.4706354   1.8909684  )
        26           O   tau(  26) = (   0.4963743   0.4708404   1.9093275  )
        27           O   tau(  27) = (  -0.0035063   0.0015866   2.0081899  )
        28           O   tau(  28) = (   0.5016083   0.0021199   2.0067060  )
        29           Ru  tau(  29) = (   0.2439411   0.0025546   2.1964821  )
        30           Ru  tau(  30) = (   0.7519411   0.0027915   2.1989953  )
        31           O   tau(  31) = (   0.2475600   0.2877026   2.1888379  )
        32           O   tau(  32) = (   0.7517832   0.2912812   2.1972704  )
        33           Ru  tau(  33) = (   0.0021863   0.4713430   2.1922622  )
        34           Ru  tau(  34) = (   0.5036744   0.4718991   2.2154322  )
        35           O   tau(  35) = (   0.2472539   0.6546535   2.1879450  )
        36           O   tau(  36) = (   0.7520493   0.6511551   2.1957218  )
        37           O   tau(  37) = (  -0.0008723   0.0007439   2.3604417  )
        38           O   tau(  38) = (   0.4968080  -0.0012337   2.3904924  )
        39           O   tau(  39) = (   0.0070050   0.4718703   2.4873904  )
        40           O   tau(  40) = (   0.4780830   0.4715476   2.4795783  )
        41           H   tau(  41) = (   0.1511892   0.4746482   0.8738956  )
        42           H   tau(  42) = (   0.1511892   0.4746482   2.5413397  )
        43           H   tau(  43) = (   0.4957906   0.0619533   0.8901245  )
        44           H   tau(  44) = (   0.4957906   0.0619533   2.5251107  )

     number of k points=     2  Marzari-Vanderbilt smearing, width (Ry)=  0.0300
                       cart. coord. in units 2pi/alat
        k(    1) = (   0.2500000   0.2665641   0.0000000), wk =   1.0000000
        k(    2) = (  -0.2500000   0.2665641   0.0000000), wk =   1.0000000

     Dense  grid:  1110843 G-vectors     FFT dimensions: (  90,  81, 300)

     Smooth grid:   280917 G-vectors     FFT dimensions: (  60,  54, 192)

     Estimated max dynamical RAM per process >     181.76 MB

     Estimated total dynamical RAM >       3.55 GB

     Check: negative core charge=   -0.000001

     Initial potential from superposition of free atoms

     starting charge     363.9933, renormalised to     364.0000

     add environment contribution to local potential
     Polarization accuracy = 6.2E-12, # of iterations =  24

     negative rho (up, down):  3.142E-05 0.000E+00
     Starting wfcs are  236 randomized atomic wfcs
     Checking if some PAW data can be deallocated... 

     total cpu time spent up to now is      678.0 secs

     per-process dynamical memory:   150.6 Mb

     Self-consistent Calculation

     iteration #  1     ecut=    50.00 Ry     beta= 0.70
     Davidson diagonalization with overlap
     ethr =  1.00E-02,  avg # of iterations =  2.0

     total cpu time spent up to now is      834.5 secs

     total energy              =   -3430.15173956 Ry
     estimated scf accuracy    <      10.13908821 Ry
     electrostatic embedding   =      -0.00178411 Ry
     cavitation energy         =       0.01996196 Ry
     PV energy                 =      -0.08381038 Ry
     correction to one-el term =     215.71724429 Ry

     iteration #  2     ecut=    50.00 Ry     beta= 0.70
     Davidson diagonalization with overlap
     ethr =  2.79E-03,  avg # of iterations =  2.0

     total cpu time spent up to now is      996.9 secs

     total energy              =   -3432.40452871 Ry
     estimated scf accuracy    <       2.28917801 Ry
     electrostatic embedding   =      -0.00256800 Ry
     cavitation energy         =       0.02004780 Ry
     PV energy                 =      -0.08397343 Ry
     correction to one-el term =     215.71935822 Ry

     iteration #  3     ecut=    50.00 Ry     beta= 0.70
     Davidson diagonalization with overlap
     ethr =  6.29E-04,  avg # of iterations =  1.0

     total cpu time spent up to now is     1155.4 secs

     total energy              =   -3432.62048946 Ry
     estimated scf accuracy    <       0.52653965 Ry
     electrostatic embedding   =      -0.00291107 Ry
     cavitation energy         =       0.02011416 Ry
     PV energy                 =      -0.08403785 Ry
     correction to one-el term =     215.72024501 Ry

     iteration #  4     ecut=    50.00 Ry     beta= 0.70
     Davidson diagonalization with overlap
     ethr =  1.45E-04,  avg # of iterations =  1.0

     total cpu time spent up to now is     1300.3 secs

     total energy              =   -3432.66200652 Ry
     estimated scf accuracy    <       0.31309772 Ry
     electrostatic embedding   =      -0.00298940 Ry
     cavitation energy         =       0.02026239 Ry
     PV energy                 =      -0.08359467 Ry
     correction to one-el term =     215.72019221 Ry

     iteration #  5     ecut=    50.00 Ry     beta= 0.70
     Davidson diagonalization with overlap
     ethr =  8.60E-05,  avg # of iterations =  1.0

     add environment contribution to local potential
     Polarization accuracy = 2.8E-12, # of iterations =  38

     total cpu time spent up to now is     1466.3 secs

     total energy              =   -3432.66209589 Ry
     estimated scf accuracy    <       0.09235975 Ry
     electrostatic embedding   =      -0.00311136 Ry
     cavitation energy         =       0.02055045 Ry
     PV energy                 =      -0.08291906 Ry
     correction to one-el term =     215.72016983 Ry

     iteration #  6     ecut=    50.00 Ry     beta= 0.70
     Davidson diagonalization with overlap
     ethr =  2.54E-05,  avg # of iterations =  2.0

     add environment contribution to local potential
     Polarization accuracy = 8.9E-12, # of iterations =  36

     total cpu time spent up to now is     1619.4 secs

     total energy              =   -3432.69201308 Ry
     estimated scf accuracy    <       0.04823208 Ry
     electrostatic embedding   =      -0.03225854 Ry
     cavitation energy         =       0.02092309 Ry
     PV energy                 =      -0.08199281 Ry
     correction to one-el term =     192.38066595 Ry

     iteration #  7     ecut=    50.00 Ry     beta= 0.70
     Davidson diagonalization with overlap
     ethr =  1.33E-05,  avg # of iterations =  7.0

     add environment contribution to local potential
     Polarization accuracy = 7.0E-12, # of iterations =  40

     total cpu time spent up to now is     1781.9 secs

     total energy              =   -3432.69337623 Ry
     estimated scf accuracy    <       0.03845820 Ry
     electrostatic embedding   =      -0.03820794 Ry
     cavitation energy         =       0.02113328 Ry
     PV energy                 =      -0.08143347 Ry
     correction to one-el term =     190.29473532 Ry

     iteration #  8     ecut=    50.00 Ry     beta= 0.70
     Davidson diagonalization with overlap
     ethr =  1.06E-05,  avg # of iterations =  2.0

     add environment contribution to local potential
     Polarization accuracy = 2.0E-12, # of iterations =  50

     total cpu time spent up to now is     1940.7 secs

     total energy              =   -3432.69036524 Ry
     estimated scf accuracy    <       0.02769374 Ry
     electrostatic embedding   =      -0.04463853 Ry
     cavitation energy         =       0.02132469 Ry
     PV energy                 =      -0.08091242 Ry
     correction to one-el term =     188.49959996 Ry

     iteration #  9     ecut=    50.00 Ry     beta= 0.70
     Davidson diagonalization with overlap
     ethr =  7.61E-06,  avg # of iterations =  2.0

     negative rho (up, down):  5.073E-04 0.000E+00

     add environment contribution to local potential
     Polarization accuracy = 3.4E-12, # of iterations =  54

     total cpu time spent up to now is     2103.8 secs

     total energy              =   -3432.69339101 Ry
     estimated scf accuracy    <       0.03863058 Ry
     electrostatic embedding   =      -0.06546537 Ry
     cavitation energy         =       0.02171800 Ry
     PV energy                 =      -0.07985547 Ry
     correction to one-el term =     185.18228402 Ry

     iteration # 10     ecut=    50.00 Ry     beta= 0.70
     Davidson diagonalization with overlap
     ethr =  7.61E-06,  avg # of iterations =  2.0

     negative rho (up, down):  3.765E-07 0.000E+00

     add environment contribution to local potential
     Polarization accuracy = 3.5E-12, # of iterations =  50

     total cpu time spent up to now is     2258.4 secs

     total energy              =   -3432.69346088 Ry
     estimated scf accuracy    <       0.02146399 Ry
     electrostatic embedding   =      -0.07529333 Ry
     cavitation energy         =       0.02173811 Ry
     PV energy                 =      -0.07962653 Ry
     correction to one-el term =     184.59709118 Ry

     iteration # 11     ecut=    50.00 Ry     beta= 0.70
     Davidson diagonalization with overlap
     ethr =  5.90E-06,  avg # of iterations =  2.0

     negative rho (up, down):  6.746E-05 0.000E+00

     add environment contribution to local potential
     Polarization accuracy = 9.6E-12, # of iterations =  49

     total cpu time spent up to now is     2415.0 secs

     total energy              =   -3432.69412669 Ry
     estimated scf accuracy    <       0.01082553 Ry
     electrostatic embedding   =      -0.07090954 Ry
     cavitation energy         =       0.02155662 Ry
     PV energy                 =      -0.07985120 Ry
     correction to one-el term =     185.82865381 Ry

     iteration # 12     ecut=    50.00 Ry     beta= 0.70
     Davidson diagonalization with overlap
     ethr =  2.97E-06,  avg # of iterations = 10.0

     negative rho (up, down):  2.626E-05 0.000E+00

     add environment contribution to local potential
     Polarization accuracy = 9.7E-12, # of iterations =  46

     total cpu time spent up to now is     2571.2 secs

     total energy              =   -3432.69453128 Ry
     estimated scf accuracy    <       0.00541185 Ry
     electrostatic embedding   =      -0.07212892 Ry
     cavitation energy         =       0.02143360 Ry
     PV energy                 =      -0.07991884 Ry
     correction to one-el term =     186.64008527 Ry

     iteration # 13     ecut=    50.00 Ry     beta= 0.70
     Davidson diagonalization with overlap
     ethr =  1.49E-06,  avg # of iterations =  1.0

     negative rho (up, down):  6.083E-05 0.000E+00

     add environment contribution to local potential
     Polarization accuracy = 6.8E-12, # of iterations =  46

     total cpu time spent up to now is     2712.5 secs

     total energy              =   -3432.69523560 Ry
     estimated scf accuracy    <       0.00311087 Ry
     electrostatic embedding   =      -0.06963017 Ry
     cavitation energy         =       0.02127644 Ry
     PV energy                 =      -0.08008329 Ry
     correction to one-el term =     188.04392459 Ry

     iteration # 14     ecut=    50.00 Ry     beta= 0.70
     Davidson diagonalization with overlap
     ethr =  8.55E-07,  avg # of iterations =  1.0

     negative rho (up, down):  4.831E-04 0.000E+00

     add environment contribution to local potential
     Polarization accuracy = 5.5E-12, # of iterations =  45

     total cpu time spent up to now is     2883.3 secs

     total energy              =   -3432.69558737 Ry
     estimated scf accuracy    <       0.00111951 Ry
     electrostatic embedding   =      -0.06869057 Ry
     cavitation energy         =       0.02122127 Ry
     PV energy                 =      -0.08012768 Ry
     correction to one-el term =     188.78842977 Ry

     iteration # 15     ecut=    50.00 Ry     beta= 0.70
     Davidson diagonalization with overlap
     ethr =  3.08E-07,  avg # of iterations =  2.0

     negative rho (up, down):  1.177E-03 0.000E+00

     add environment contribution to local potential
     Polarization accuracy = 4.6E-12, # of iterations =  45

     total cpu time spent up to now is     3034.9 secs

     total energy              =   -3432.69606195 Ry
     estimated scf accuracy    <       0.00030064 Ry
     electrostatic embedding   =      -0.06426096 Ry
     cavitation energy         =       0.02112852 Ry
     PV energy                 =      -0.08024794 Ry
     correction to one-el term =     190.24773890 Ry

     iteration # 16     ecut=    50.00 Ry     beta= 0.70
     Davidson diagonalization with overlap
     ethr =  8.26E-08,  avg # of iterations =  4.0

     negative rho (up, down):  2.929E-04 0.000E+00

     add environment contribution to local potential
     Polarization accuracy = 6.1E-12, # of iterations =  45

     total cpu time spent up to now is     3196.5 secs

     total energy              =   -3432.69626145 Ry
     estimated scf accuracy    <       0.00012958 Ry
     electrostatic embedding   =      -0.06105994 Ry
     cavitation energy         =       0.02115308 Ry
     PV energy                 =      -0.08024950 Ry
     correction to one-el term =     190.70262553 Ry

     iteration # 17     ecut=    50.00 Ry     beta= 0.70
     Davidson diagonalization with overlap
     ethr =  3.56E-08,  avg # of iterations =  3.0

     negative rho (up, down):  7.766E-05 0.000E+00

     add environment contribution to local potential
     Polarization accuracy = 4.3E-12, # of iterations =  46

     total cpu time spent up to now is     3344.8 secs

     total energy              =   -3432.69634692 Ry
     estimated scf accuracy    <       0.00003600 Ry
     electrostatic embedding   =      -0.05989737 Ry
     cavitation energy         =       0.02118884 Ry
     PV energy                 =      -0.08022087 Ry
     correction to one-el term =     190.71284762 Ry

     iteration # 18     ecut=    50.00 Ry     beta= 0.70
     Davidson diagonalization with overlap
     ethr =  9.89E-09,  avg # of iterations =  3.0

     negative rho (up, down):  5.675E-04 0.000E+00

     add environment contribution to local potential
     Polarization accuracy = 3.7E-12, # of iterations =  47

     total cpu time spent up to now is     3497.1 secs

     total energy              =   -3432.69637936 Ry
     estimated scf accuracy    <       0.00001917 Ry
     electrostatic embedding   =      -0.05956781 Ry
     cavitation energy         =       0.02120027 Ry
     PV energy                 =      -0.08020866 Ry
     correction to one-el term =     190.72270826 Ry

     iteration # 19     ecut=    50.00 Ry     beta= 0.70
     Davidson diagonalization with overlap
     ethr =  5.27E-09,  avg # of iterations =  4.0

     negative rho (up, down):  4.659E-04 0.000E+00

     add environment contribution to local potential
     Polarization accuracy = 9.1E-12, # of iterations =  45

     total cpu time spent up to now is     3644.6 secs

     total energy              =   -3432.69642149 Ry
     estimated scf accuracy    <       0.00000871 Ry
     electrostatic embedding   =      -0.05844748 Ry
     cavitation energy         =       0.02120698 Ry
     PV energy                 =      -0.08020011 Ry
     correction to one-el term =     190.91404084 Ry

     iteration # 20     ecut=    50.00 Ry     beta= 0.70
     Davidson diagonalization with overlap
     ethr =  2.39E-09,  avg # of iterations =  3.0

     negative rho (up, down):  3.402E-04 0.000E+00

     add environment contribution to local potential
     Polarization accuracy = 9.1E-12, # of iterations =  46

     total cpu time spent up to now is     3811.2 secs

     total energy              =   -3432.69642807 Ry
     estimated scf accuracy    <       0.00000428 Ry
     electrostatic embedding   =      -0.05802865 Ry
     cavitation energy         =       0.02121345 Ry
     PV energy                 =      -0.08019472 Ry
     correction to one-el term =     190.93585524 Ry

     iteration # 21     ecut=    50.00 Ry     beta= 0.70
     Davidson diagonalization with overlap
     ethr =  1.18E-09,  avg # of iterations =  4.0

     negative rho (up, down):  3.861E-04 0.000E+00

     add environment contribution to local potential
     Polarization accuracy = 5.3E-12, # of iterations =  46

     total cpu time spent up to now is     3981.3 secs

     total energy              =   -3432.69643426 Ry
     estimated scf accuracy    <       0.00000301 Ry
     electrostatic embedding   =      -0.05771517 Ry
     cavitation energy         =       0.02121534 Ry
     PV energy                 =      -0.08018964 Ry
     correction to one-el term =     190.96075856 Ry

     iteration # 22     ecut=    50.00 Ry     beta= 0.70
     Davidson diagonalization with overlap
     ethr =  8.26E-10,  avg # of iterations =  3.0

     negative rho (up, down):  2.661E-04 0.000E+00

     add environment contribution to local potential
     Polarization accuracy = 9.7E-12, # of iterations =  45

     total cpu time spent up to now is     4136.2 secs

     total energy              =   -3432.69643687 Ry
     estimated scf accuracy    <       0.00000092 Ry
     electrostatic embedding   =      -0.05752308 Ry
     cavitation energy         =       0.02121591 Ry
     PV energy                 =      -0.08018839 Ry
     correction to one-el term =     190.97963243 Ry

     iteration # 23     ecut=    50.00 Ry     beta= 0.70
     Davidson diagonalization with overlap
     ethr =  2.54E-10,  avg # of iterations =  3.0

     negative rho (up, down):  1.885E-04 0.000E+00

     add environment contribution to local potential
     Polarization accuracy = 2.8E-12, # of iterations =  46

     total cpu time spent up to now is     4286.8 secs

     total energy              =   -3432.69643878 Ry
     estimated scf accuracy    <       0.00000053 Ry
     electrostatic embedding   =      -0.05743048 Ry
     cavitation energy         =       0.02121475 Ry
     PV energy                 =      -0.08018982 Ry
     correction to one-el term =     190.96882012 Ry

     iteration # 24     ecut=    50.00 Ry     beta= 0.70
     Davidson diagonalization with overlap
     ethr =  1.45E-10,  avg # of iterations =  3.0

     negative rho (up, down):  1.707E-04 0.000E+00

     add environment contribution to local potential
     Polarization accuracy = 9.6E-12, # of iterations =  46

     total cpu time spent up to now is     4456.6 secs

     total energy              =   -3432.69643991 Ry
     estimated scf accuracy    <       0.00000027 Ry
     electrostatic embedding   =      -0.05735752 Ry
     cavitation energy         =       0.02121550 Ry
     PV energy                 =      -0.08018977 Ry
     correction to one-el term =     190.96526937 Ry

     iteration # 25     ecut=    50.00 Ry     beta= 0.70
     Davidson diagonalization with overlap
     ethr =  7.30E-11,  avg # of iterations =  2.0

     negative rho (up, down):  1.435E-04 0.000E+00

     add environment contribution to local potential
     Polarization accuracy = 3.6E-12, # of iterations =  47

     total cpu time spent up to now is     4601.3 secs

     total energy              =   -3432.69644009 Ry
     estimated scf accuracy    <       0.00000016 Ry
     electrostatic embedding   =      -0.05735739 Ry
     cavitation energy         =       0.02121543 Ry
     PV energy                 =      -0.08019079 Ry
     correction to one-el term =     190.96342269 Ry

     iteration # 26     ecut=    50.00 Ry     beta= 0.70
     Davidson diagonalization with overlap
     ethr =  4.47E-11,  avg # of iterations =  2.0

     negative rho (up, down):  1.458E-04 0.000E+00

     add environment contribution to local potential
     Polarization accuracy = 9.4E-12, # of iterations =  45

     total cpu time spent up to now is     4751.5 secs

     total energy              =   -3432.69644066 Ry
     estimated scf accuracy    <       0.00000010 Ry
     electrostatic embedding   =      -0.05733075 Ry
     cavitation energy         =       0.02121539 Ry
     PV energy                 =      -0.08019164 Ry
     correction to one-el term =     190.96211375 Ry

     iteration # 27     ecut=    50.00 Ry     beta= 0.70
     Davidson diagonalization with overlap
     ethr =  2.88E-11,  avg # of iterations =  1.0

     negative rho (up, down):  1.410E-04 0.000E+00

     add environment contribution to local potential
     Polarization accuracy = 8.6E-12, # of iterations =  45

     total cpu time spent up to now is     4901.1 secs

     total energy              =   -3432.69644087 Ry
     estimated scf accuracy    <       0.00000008 Ry
     electrostatic embedding   =      -0.05732537 Ry
     cavitation energy         =       0.02121549 Ry
     PV energy                 =      -0.08019185 Ry
     correction to one-el term =     190.96435156 Ry

     iteration # 28     ecut=    50.00 Ry     beta= 0.70
     Davidson diagonalization with overlap
     ethr =  2.10E-11,  avg # of iterations =  2.0

     negative rho (up, down):  1.414E-04 0.000E+00

     add environment contribution to local potential
     Polarization accuracy = 8.7E-12, # of iterations =  45

     total cpu time spent up to now is     5055.6 secs

     total energy              =   -3432.69644128 Ry
     estimated scf accuracy    <       0.00000007 Ry
     electrostatic embedding   =      -0.05731628 Ry
     cavitation energy         =       0.02121548 Ry
     PV energy                 =      -0.08019219 Ry
     correction to one-el term =     190.96552958 Ry

     iteration # 29     ecut=    50.00 Ry     beta= 0.70
     Davidson diagonalization with overlap
     ethr =  1.85E-11,  avg # of iterations =  1.0

     negative rho (up, down):  1.542E-04 0.000E+00

     add environment contribution to local potential
     Polarization accuracy = 9.4E-12, # of iterations =  45

     total cpu time spent up to now is     5210.1 secs

     total energy              =   -3432.69644155 Ry
     estimated scf accuracy    <       0.00000006 Ry
     electrostatic embedding   =      -0.05731202 Ry
     cavitation energy         =       0.02121542 Ry
     PV energy                 =      -0.08019236 Ry
     correction to one-el term =     190.96644802 Ry

     iteration # 30     ecut=    50.00 Ry     beta= 0.70
     Davidson diagonalization with overlap
     ethr =  1.68E-11,  avg # of iterations =  2.0

     negative rho (up, down):  1.622E-04 0.000E+00

     add environment contribution to local potential
     Polarization accuracy = 8.2E-12, # of iterations =  45

     total cpu time spent up to now is     5366.2 secs

     total energy              =   -3432.69644232 Ry
     estimated scf accuracy    <       0.00000006 Ry
     electrostatic embedding   =      -0.05730549 Ry
     cavitation energy         =       0.02121526 Ry
     PV energy                 =      -0.08019235 Ry
     correction to one-el term =     190.96952940 Ry

     iteration # 31     ecut=    50.00 Ry     beta= 0.70
     Davidson diagonalization with overlap
     ethr =  1.59E-11,  avg # of iterations =  2.5

     negative rho (up, down):  1.713E-04 0.000E+00

     add environment contribution to local potential
     Polarization accuracy = 9.4E-12, # of iterations =  46

     total cpu time spent up to now is     5527.0 secs

     total energy              =   -3432.69644456 Ry
     estimated scf accuracy    <       0.00000006 Ry
     electrostatic embedding   =      -0.05728368 Ry
     cavitation energy         =       0.02121505 Ry
     PV energy                 =      -0.08019281 Ry
     correction to one-el term =     190.97402344 Ry

     iteration # 32     ecut=    50.00 Ry     beta= 0.70
     Davidson diagonalization with overlap
     ethr =  1.59E-11,  avg # of iterations =  1.0

     negative rho (up, down):  1.894E-04 0.000E+00

     add environment contribution to local potential
     Polarization accuracy = 8.4E-12, # of iterations =  46

     total cpu time spent up to now is     5683.2 secs

     total energy              =   -3432.69644549 Ry
     estimated scf accuracy    <       0.00000005 Ry
     electrostatic embedding   =      -0.05728565 Ry
     cavitation energy         =       0.02121499 Ry
     PV energy                 =      -0.08019264 Ry
     correction to one-el term =     190.97451585 Ry

     iteration # 33     ecut=    50.00 Ry     beta= 0.70
     Davidson diagonalization with overlap
     ethr =  1.32E-11,  avg # of iterations =  2.0

     negative rho (up, down):  1.879E-04 0.000E+00

     add environment contribution to local potential
     Polarization accuracy = 9.6E-12, # of iterations =  45

     total cpu time spent up to now is     5843.2 secs

     total energy              =   -3432.69644917 Ry
     estimated scf accuracy    <       0.00000004 Ry
     electrostatic embedding   =      -0.05727111 Ry
     cavitation energy         =       0.02121478 Ry
     PV energy                 =      -0.08019270 Ry
     correction to one-el term =     190.97824416 Ry

     iteration # 34     ecut=    50.00 Ry     beta= 0.70
     Davidson diagonalization with overlap
     ethr =  1.05E-11,  avg # of iterations =  2.0

     negative rho (up, down):  1.820E-04 0.000E+00

     add environment contribution to local potential
     Polarization accuracy = 7.2E-12, # of iterations =  46

     total cpu time spent up to now is     5999.9 secs

     total energy              =   -3432.69645091 Ry
     estimated scf accuracy    <       0.00000003 Ry
     electrostatic embedding   =      -0.05727409 Ry
     cavitation energy         =       0.02121486 Ry
     PV energy                 =      -0.08019255 Ry
     correction to one-el term =     190.97724733 Ry

     iteration # 35     ecut=    50.00 Ry     beta= 0.70
     Davidson diagonalization with overlap
     ethr =  8.25E-12,  avg # of iterations =  2.5

     negative rho (up, down):  1.651E-04 0.000E+00

     add environment contribution to local potential
     Polarization accuracy = 7.0E-12, # of iterations =  46

     total cpu time spent up to now is     6168.3 secs

     total energy              =   -3432.69645498 Ry
     estimated scf accuracy    <       0.00000003 Ry
     electrostatic embedding   =      -0.05727521 Ry
     cavitation energy         =       0.02121498 Ry
     PV energy                 =      -0.08019245 Ry
     correction to one-el term =     190.97565639 Ry

     iteration # 36     ecut=    50.00 Ry     beta= 0.70
     Davidson diagonalization with overlap
     ethr =  6.88E-12,  avg # of iterations =  5.0

     negative rho (up, down):  1.539E-04 0.000E+00

     add environment contribution to local potential
     Polarization accuracy = 3.2E-12, # of iterations =  45

     total cpu time spent up to now is     6330.7 secs

     total energy              =   -3432.69646210 Ry
     estimated scf accuracy    <       0.00000002 Ry
     electrostatic embedding   =      -0.05728874 Ry
     cavitation energy         =       0.02121524 Ry
     PV energy                 =      -0.08019212 Ry
     correction to one-el term =     190.97078547 Ry

     iteration # 37     ecut=    50.00 Ry     beta= 0.70
     Davidson diagonalization with overlap
     ethr =  5.90E-12,  avg # of iterations =  2.0

     negative rho (up, down):  1.463E-04 0.000E+00

     add environment contribution to local potential
     Polarization accuracy = 6.0E-12, # of iterations =  45

     total cpu time spent up to now is     6492.2 secs

     total energy              =   -3432.69646459 Ry
     estimated scf accuracy    <       0.00000001 Ry
     electrostatic embedding   =      -0.05729344 Ry
     cavitation energy         =       0.02121533 Ry
     PV energy                 =      -0.08019220 Ry
     correction to one-el term =     190.96938141 Ry

     iteration # 38     ecut=    50.00 Ry     beta= 0.70
     Davidson diagonalization with overlap
     ethr =  2.77E-12,  avg # of iterations =  2.0

     negative rho (up, down):  1.455E-04 0.000E+00

     add environment contribution to local potential
     Polarization accuracy = 8.2E-12, # of iterations =  46

     total cpu time spent up to now is     6653.9 secs

     total energy              =   -3432.69646541 Ry
     estimated scf accuracy    <          6.0E-09 Ry
     electrostatic embedding   =      -0.05730031 Ry
     cavitation energy         =       0.02121540 Ry
     PV energy                 =      -0.08019219 Ry
     correction to one-el term =     190.96771934 Ry

     iteration # 39     ecut=    50.00 Ry     beta= 0.70
     Davidson diagonalization with overlap
     ethr =  1.64E-12,  avg # of iterations =  2.5

     negative rho (up, down):  1.441E-04 0.000E+00

     add environment contribution to local potential
     Polarization accuracy = 7.2E-12, # of iterations =  45

     total cpu time spent up to now is     6817.2 secs

     total energy              =   -3432.69646611 Ry
     estimated scf accuracy    <          4.1E-09 Ry
     electrostatic embedding   =      -0.05730202 Ry
     cavitation energy         =       0.02121537 Ry
     PV energy                 =      -0.08019225 Ry
     correction to one-el term =     190.96768640 Ry

     iteration # 40     ecut=    50.00 Ry     beta= 0.70
     Davidson diagonalization with overlap
     ethr =  1.13E-12,  avg # of iterations =  2.0

     negative rho (up, down):  1.472E-04 0.000E+00

     add environment contribution to local potential
     Polarization accuracy = 7.8E-12, # of iterations =  45

     total cpu time spent up to now is     6962.7 secs

     total energy              =   -3432.69646704 Ry
     estimated scf accuracy    <          1.2E-09 Ry
     electrostatic embedding   =      -0.05730689 Ry
     cavitation energy         =       0.02121532 Ry
     PV energy                 =      -0.08019236 Ry
     correction to one-el term =     190.96764714 Ry

     iteration # 41     ecut=    50.00 Ry     beta= 0.70
     Davidson diagonalization with overlap
     ethr =  3.19E-13,  avg # of iterations =  4.0

     negative rho (up, down):  1.512E-04 0.000E+00

     the potential shift due to the Gaussian-smeared nuclei is    -1.3223 ev

     total cpu time spent up to now is     7121.1 secs

     End of self-consistent calculation

          k = 0.2500 0.2666 0.0000 ( 35123 PWs)   bands (ev):

   -78.5270 -78.5140 -78.0746 -78.0621 -77.9935 -77.9810 -77.7840 -77.7714
   -77.6475 -77.6027 -77.6006 -77.4789 -49.0617 -49.0487 -48.4040 -48.3910
   -48.3667 -48.3541 -48.2332 -48.2206 -48.1469 -48.1339 -48.0770 -48.0643
   -48.0348 -48.0224 -48.0163 -47.9438 -47.9315 -47.9293 -47.9078 -47.8953
   -47.8624 -47.8242 -47.8121 -47.7236 -47.7104 -47.6977 -47.5695 -47.5605
   -47.5599 -47.5479 -47.4961 -47.4452 -47.4261 -47.4194 -47.4115 -47.2892
   -24.1898 -24.0683 -23.8654 -23.7807 -23.7624 -23.6143 -23.5563 -23.4617
   -23.3440 -23.2161 -23.1110 -23.0802 -23.0322 -22.9729 -22.9449 -22.9030
   -22.8604 -22.8221 -22.8101 -22.7531 -22.7295 -22.6368 -22.5800 -22.4767
   -22.2233 -22.1241 -22.1161 -22.0361 -12.3779 -12.3004 -12.2584 -12.1506
   -12.0899 -11.7760 -11.7325 -11.7220 -11.5779 -11.4280 -11.4074 -11.2937
   -11.2865 -11.2659 -11.2384 -11.1654 -11.0734 -11.0356 -11.0052 -10.9382
   -10.9190 -10.8811 -10.7760 -10.6296 -10.4957 -10.3578 -10.2291 -10.1545
   -10.0503 -10.0445  -9.9534  -9.8951  -9.7756  -9.6213  -9.6100  -9.5016
    -9.4547  -9.4129  -9.3245  -9.2668  -9.1446  -9.1149  -9.1036  -8.9565
    -8.9327  -8.8195  -8.6950  -8.6902  -8.5700  -8.4963  -8.4441  -8.4350
    -8.4276  -8.3286  -8.3272  -8.2030  -8.1736  -8.1135  -8.0345  -8.0265
    -7.9227  -7.8533  -7.7577  -7.6744  -7.6361  -7.6109  -7.4273  -7.3941
    -7.2915  -7.2396  -7.1197  -7.0724  -6.9789  -6.9478  -6.9408  -6.8087
    -6.7626  -6.7449  -6.6634  -6.5831  -6.5163  -6.3685  -6.2914  -6.2106
    -5.3722  -5.3249  -5.2929  -5.2136  -5.1503  -5.0663  -5.0498  -5.0263
    -4.9878  -4.9457  -4.9211  -4.8639  -4.8122  -4.7435  -4.7317  -4.6534
    -4.5909  -4.4987  -4.4687  -4.3911  -4.3570  -4.1982  -4.1593  -4.1231
    -3.9442  -3.9326  -3.8442  -3.6998  -3.5546  -3.4221  -3.3855  -3.3591
    -3.3147  -3.2722  -3.0799  -2.9038  -2.3991  -2.1948  -2.1799  -2.0468
    -1.8189  -1.8040  -1.3072  -0.8801  -0.8406  -0.6500  -0.4847  -0.4797
    -0.4245  -0.3612  -0.2723  -0.1540   0.0156   0.1991   0.3056   0.5764
     0.5996   0.6747

          k =-0.2500 0.2666 0.0000 ( 35123 PWs)   bands (ev):

   -78.5270 -78.5140 -78.0746 -78.0621 -77.9935 -77.9810 -77.7840 -77.7714
   -77.6475 -77.6027 -77.6006 -77.4789 -49.0617 -49.0487 -48.4040 -48.3910
   -48.3667 -48.3541 -48.2333 -48.2207 -48.1467 -48.1337 -48.0770 -48.0643
   -48.0349 -48.0225 -48.0163 -47.9438 -47.9315 -47.9293 -47.9078 -47.8953
   -47.8624 -47.8242 -47.8121 -47.7236 -47.7104 -47.6977 -47.5695 -47.5605
   -47.5599 -47.5479 -47.4961 -47.4452 -47.4261 -47.4194 -47.4115 -47.2892
   -24.1898 -24.0684 -23.8652 -23.7802 -23.7619 -23.6152 -23.5570 -23.4619
   -23.3437 -23.2153 -23.1105 -23.0790 -23.0338 -22.9748 -22.9477 -22.9010
   -22.8594 -22.8205 -22.8090 -22.7534 -22.7297 -22.6375 -22.5801 -22.4766
   -22.2234 -22.1243 -22.1161 -22.0359 -12.3844 -12.3049 -12.2514 -12.1492
   -12.0841 -11.7771 -11.7297 -11.7183 -11.5826 -11.4389 -11.4143 -11.2951
   -11.2873 -11.2481 -11.2339 -11.1717 -11.0991 -11.0188 -10.9828 -10.9509
   -10.9115 -10.8725 -10.7796 -10.6429 -10.4931 -10.3603 -10.2135 -10.1638
   -10.0591 -10.0361  -9.9565  -9.9074  -9.7778  -9.6297  -9.6030  -9.4989
    -9.4694  -9.4029  -9.3228  -9.2538  -9.1571  -9.1186  -9.0937  -8.9461
    -8.9243  -8.8274  -8.6920  -8.6884  -8.5677  -8.5017  -8.4435  -8.4378
    -8.4256  -8.3521  -8.3248  -8.1781  -8.1701  -8.1170  -8.0451  -8.0197
    -7.9136  -7.8637  -7.7628  -7.6700  -7.6557  -7.6132  -7.4123  -7.3737
    -7.2670  -7.2516  -7.1079  -7.0602  -7.0552  -6.9627  -6.9236  -6.8205
    -6.7648  -6.7300  -6.6636  -6.5640  -6.5136  -6.3641  -6.2970  -6.2108
    -5.3766  -5.3270  -5.2890  -5.2024  -5.1510  -5.0640  -5.0581  -5.0286
    -4.9876  -4.9416  -4.9195  -4.8624  -4.8180  -4.7431  -4.7299  -4.6546
    -4.6004  -4.5004  -4.4683  -4.3912  -4.3480  -4.2086  -4.1516  -4.1287
    -3.9427  -3.9275  -3.8462  -3.6989  -3.5543  -3.4222  -3.3876  -3.3582
    -3.3135  -3.2722  -3.0796  -2.9033  -2.3992  -2.1951  -2.1802  -2.0466
    -1.8190  -1.8036  -1.3069  -0.8802  -0.8399  -0.6498  -0.4850  -0.4797
    -0.4250  -0.3622  -0.2737  -0.1547   0.0202   0.1980   0.3037   0.5759
     0.6007   0.6753

     the Fermi energy is    -4.2139 ev

!    total energy              =   -3432.69646750 Ry
     estimated scf accuracy    <          8.8E-10 Ry
     smearing contrib. (-TS)   =       0.04035281 Ry
     internal energy E=F+TS    =   -3432.73682031 Ry

     The total energy is F=E-TS. E is the sum of the following terms:
     one-electron contribution =  -25431.85100629 Ry
     hartree contribution      =   12695.23471360 Ry
     xc contribution           =    -446.24597407 Ry
     ewald contribution        =    9825.82624091 Ry
     one-center paw contrib.   =    -266.55248387 Ry
     electrostatic embedding   =      -0.05730551 Ry
     cavitation energy         =       0.02121531 Ry
     PV energy                 =      -0.08019233 Ry
     correction to one-el term =     190.96797195 Ry

     WARNING: you are using the parabolic pbc correction;
              the potential shift above must be added to 
              band and Fermi energies.

     convergence has been achieved in  41 iterations

     negative rho (up, down):  1.512E-04 0.000E+00

     Forces acting on atoms (cartesian axes, Ry/au):

     atom    1 type  1   force =     0.02081730    0.00042712   -0.01396192
     atom    2 type  1   force =    -0.00129864   -0.00037589   -0.01347682
     atom    3 type  1   force =     0.00094689    0.00008410   -0.01586622
     atom    4 type  1   force =    -0.00005243   -0.01205804    0.02901349
     atom    5 type  2   force =    -0.01717041   -0.00140292   -0.00135773
     atom    6 type  2   force =     0.01633582   -0.00229585    0.00184906
     atom    7 type  1   force =     0.00292420    0.04410748    0.00264170
     atom    8 type  1   force =    -0.00075431    0.03110578    0.00152658
     atom    9 type  2   force =    -0.00090806   -0.00138034    0.00188763
     atom   10 type  2   force =    -0.00128949   -0.00042784    0.01046657
     atom   11 type  1   force =     0.00234880   -0.04097544    0.00251290
     atom   12 type  1   force =    -0.00016568   -0.02719126    0.00160908
     atom   13 type  1   force =    -0.00117152    0.00033529    0.00201886
     atom   14 type  1   force =     0.00115311    0.00031456   -0.00533851
     atom   15 type  1   force =    -0.00174738   -0.00021076   -0.00162806
     atom   16 type  1   force =     0.00165735   -0.00007524    0.00981659
     atom   17 type  2   force =     0.01714772   -0.00149176    0.00000000
     atom   18 type  2   force =    -0.01708869    0.00060083    0.00000000
     atom   19 type  1   force =    -0.00568627   -0.02606462    0.00000000
     atom   20 type  1   force =     0.00421213   -0.06656075    0.00000000
     atom   21 type  2   force =    -0.01189256    0.00163900    0.00000000
     atom   22 type  2   force =     0.01515222    0.00070175    0.00000000
     atom   23 type  1   force =    -0.00665438    0.02473314    0.00000000
     atom   24 type  1   force =     0.00534621    0.06605682    0.00000000
     atom   25 type  1   force =    -0.00174738   -0.00021076    0.00162806
     atom   26 type  1   force =     0.00165735   -0.00007524   -0.00981659
     atom   27 type  1   force =    -0.00117152    0.00033529   -0.00201886
     atom   28 type  1   force =     0.00115311    0.00031456    0.00533851
     atom   29 type  2   force =    -0.01717041   -0.00140292    0.00135773
     atom   30 type  2   force =     0.01633582   -0.00229585   -0.00184906
     atom   31 type  1   force =     0.00292420    0.04410748   -0.00264170
     atom   32 type  1   force =    -0.00075431    0.03110578   -0.00152658
     atom   33 type  2   force =    -0.00090806   -0.00138034   -0.00188763
     atom   34 type  2   force =    -0.00128949   -0.00042784   -0.01046657
     atom   35 type  1   force =     0.00234880   -0.04097544   -0.00251290
     atom   36 type  1   force =    -0.00016568   -0.02719126   -0.00160908
     atom   37 type  1   force =     0.00094689    0.00008410    0.01586622
     atom   38 type  1   force =    -0.00005243   -0.01205804   -0.02901349
     atom   39 type  1   force =     0.02081730    0.00042712    0.01396192
     atom   40 type  1   force =    -0.00129864   -0.00037589    0.01347682
     atom   41 type  3   force =    -0.02175622   -0.00043417    0.00714291
     atom   42 type  3   force =    -0.02175622   -0.00043417   -0.00714291
     atom   43 type  3   force =    -0.00013753    0.01064621   -0.02356255
     atom   44 type  3   force =    -0.00013753    0.01064621    0.02356255
     The non-local contrib.  to forces
     atom    1 type  1   force =     1.75163619    0.02813789    0.44922952
     atom    2 type  1   force =     0.05066156   -0.01834911    1.24963416
     atom    3 type  1   force =     0.01083064    0.02179853    1.08411147
     atom    4 type  1   force =    -0.01385269    0.90390965   -0.70552845
     atom    5 type  2   force =    -0.03921108    0.00125011   -0.00544520
     atom    6 type  2   force =     0.04004292    0.00142525   -0.00932207
     atom    7 type  1   force =    -0.01376969   -0.04090544   -0.07762372
     atom    8 type  1   force =    -0.10204003   -0.00837027   -0.01058930
     atom    9 type  2   force =     0.01225787   -0.00050907    0.02775772
     atom   10 type  2   force =    -0.01227165   -0.00051487   -0.06268833
     atom   11 type  1   force =    -0.01331661    0.02667928   -0.07863323
     atom   12 type  1   force =    -0.10199372   -0.01041461   -0.01726655
     atom   13 type  1   force =    -0.00654952    0.02535153   -0.04055550
     atom   14 type  1   force =     0.02893532   -0.00267188    0.07324278
     atom   15 type  1   force =    -0.01114152    0.00092880   -0.02221017
     atom   16 type  1   force =    -0.00410885   -0.00247607    0.22189124
     atom   17 type  2   force =    -0.00441038   -0.00069624    0.00000000
     atom   18 type  2   force =     0.00091168    0.00072660    0.00000000
     atom   19 type  1   force =     0.02773431    0.06446644    0.00000000
     atom   20 type  1   force =    -0.01670826   -0.00801015    0.00000000
     atom   21 type  2   force =     0.00539226    0.00040059    0.00000000
     atom   22 type  2   force =    -0.00886543    0.00015008    0.00000000
     atom   23 type  1   force =     0.03810131   -0.05884397    0.00000000
     atom   24 type  1   force =    -0.02644274    0.01065059    0.00000000
     atom   25 type  1   force =    -0.01114152    0.00092880    0.02221017
     atom   26 type  1   force =    -0.00410885   -0.00247607   -0.22189124
     atom   27 type  1   force =    -0.00654952    0.02535153    0.04055550
     atom   28 type  1   force =     0.02893532   -0.00267188   -0.07324278
     atom   29 type  2   force =    -0.03921108    0.00125011    0.00544520
     atom   30 type  2   force =     0.04004292    0.00142525    0.00932207
     atom   31 type  1   force =    -0.01376969   -0.04090544    0.07762372
     atom   32 type  1   force =    -0.10204003   -0.00837027    0.01058930
     atom   33 type  2   force =     0.01225787   -0.00050907   -0.02775772
     atom   34 type  2   force =    -0.01227165   -0.00051487    0.06268833
     atom   35 type  1   force =    -0.01331661    0.02667928    0.07863323
     atom   36 type  1   force =    -0.10199372   -0.01041461    0.01726655
     atom   37 type  1   force =     0.01083064    0.02179853   -1.08411147
     atom   38 type  1   force =    -0.01385269    0.90390965    0.70552845
     atom   39 type  1   force =     1.75163619    0.02813789   -0.44922952
     atom   40 type  1   force =     0.05066156   -0.01834911   -1.24963416
     atom   41 type  3   force =    -0.09261349   -0.00185681    0.03779732
     atom   42 type  3   force =    -0.09261349   -0.00185681   -0.03779732
     atom   43 type  3   force =     0.00071215   -0.04825586    0.10689524
     atom   44 type  3   force =     0.00071215   -0.04825586   -0.10689524
     The ionic contribution  to forces
     atom    1 type  1   force =    -3.35819773   -0.04457629  -96.35521049
     atom    2 type  1   force =    -0.09359046    0.10733167 -100.74015353
     atom    3 type  1   force =    -0.17785365   -0.04934285  -94.33530274
     atom    4 type  1   force =     0.19061553   -1.48692805  -90.67826018
     atom    5 type  2   force =     3.18490513    0.05573340 -171.55614687
     atom    6 type  2   force =    -3.07678319    0.01955381 -173.02492663
     atom    7 type  1   force =     0.89851185    0.17603323  -62.01774721
     atom    8 type  1   force =    -0.19097062   -0.28798874  -64.00422904
     atom    9 type  2   force =    -1.01187065   -0.09105816 -167.87686738
     atom   10 type  2   force =     0.69120345    0.03689608 -173.29970825
     atom   11 type  1   force =     0.90292785   -0.10849042  -61.84412584
     atom   12 type  1   force =    -0.19310122    0.39327521  -63.71353073
     atom   13 type  1   force =    -0.03615489   -0.03045618  -37.20402860
     atom   14 type  1   force =    -0.14782374    0.02447718  -38.76582316
     atom   15 type  1   force =    -0.13150543   -0.01255175  -24.87189271
     atom   16 type  1   force =     0.18907315   -0.03524129  -27.53576008
     atom   17 type  2   force =     0.34277102   -0.04963266   -0.00044955
     atom   18 type  2   force =    -0.31906539    0.03130122   -0.00044898
     atom   19 type  1   force =    -0.15533162    0.18186701   -0.00007971
     atom   20 type  1   force =     0.05709679   -0.30357736   -0.00007713
     atom   21 type  2   force =     0.78508935    0.03663181   -0.00026009
     atom   22 type  2   force =    -1.09864340    0.00283270   -0.00024805
     atom   23 type  1   force =    -0.25788616   -0.23012531   -0.00007970
     atom   24 type  1   force =     0.16957100    0.29607711   -0.00007711
     atom   25 type  1   force =    -0.13150498   -0.01255120   24.87167500
     atom   26 type  1   force =     0.18908237   -0.03524081   27.53561889
     atom   27 type  1   force =    -0.03615175   -0.03045776   37.20434866
     atom   28 type  1   force =    -0.14782519    0.02447679   38.76612797
     atom   29 type  2   force =     3.18484910    0.05572584  171.55639332
     atom   30 type  2   force =    -3.07672896    0.01954596  173.02516878
     atom   31 type  1   force =     0.89850946    0.17600092   62.01780776
     atom   32 type  1   force =    -0.19096709   -0.28801643   64.00429289
     atom   33 type  2   force =    -1.01188364   -0.09105653  167.87698681
     atom   34 type  2   force =     0.69120874    0.03690183  173.29985751
     atom   35 type  1   force =     0.90292698   -0.10845621   61.84418743
     atom   36 type  1   force =    -0.19309914    0.39330484   63.71359594
     atom   37 type  1   force =    -0.17785267   -0.04934075   94.33544967
     atom   38 type  1   force =     0.19061911   -1.48711611   90.67809000
     atom   39 type  1   force =    -3.35827118   -0.04457808   96.35531644
     atom   40 type  1   force =    -0.09358689    0.10733189  100.74021893
     atom   41 type  3   force =     2.58146819    0.06722279  -16.38583727
     atom   42 type  3   force =     2.58154228    0.06722412   16.38584633
     atom   43 type  3   force =     0.01734065    1.28342281  -18.14224573
     atom   44 type  3   force =     0.01733765    1.28361471   18.14253444
     The local contribution  to forces
     atom    1 type  1   force =     1.55624988    0.02854456   95.85241035
     atom    2 type  1   force =     0.10036676   -0.03845621   99.45963049
     atom    3 type  1   force =     0.15140545    0.01753328   93.19917208
     atom    4 type  1   force =    -0.16183044    0.52428667   91.51208462
     atom    5 type  2   force =    -3.21480211   -0.07897501  171.59696165
     atom    6 type  2   force =     3.10628017   -0.04534471  173.04277978
     atom    7 type  1   force =    -0.89689539   -0.08208330   62.10973654
     atom    8 type  1   force =     0.30764860    0.34166066   64.00792758
     atom    9 type  2   force =     0.96671386    0.10158762  167.80425045
     atom   10 type  2   force =    -0.64545907   -0.00744424  173.36808140
     atom   11 type  1   force =    -0.89752108    0.03714775   61.92471004
     atom   12 type  1   force =     0.30495968   -0.41804912   63.71030665
     atom   13 type  1   force =     0.03899621    0.00409853   37.24204138
     atom   14 type  1   force =     0.12288355   -0.02426459   38.69494066
     atom   15 type  1   force =     0.13901304    0.01228720   24.88897660
     atom   16 type  1   force =    -0.18153349    0.03898164   27.32659037
     atom   17 type  2   force =    -0.32331613    0.04749701   -0.00581069
     atom   18 type  2   force =     0.30331138   -0.03314069   -0.00584899
     atom   19 type  1   force =     0.12063013   -0.27200844   -0.00244313
     atom   20 type  1   force =    -0.03477355    0.24431286   -0.00246575
     atom   21 type  2   force =    -0.80574225   -0.03387836   -0.00601864
     atom   22 type  2   force =     1.12621496   -0.00074190   -0.00606653
     atom   23 type  1   force =     0.21206420    0.31294544   -0.00244160
     atom   24 type  1   force =    -0.13658012   -0.24029848   -0.00246468
     atom   25 type  1   force =     0.13901683    0.01228873  -24.89074081
     atom   26 type  1   force =    -0.18151853    0.03898334  -27.32834008
     atom   27 type  1   force =     0.03899760    0.00409739  -37.24378586
     atom   28 type  1   force =     0.12289045   -0.02426329  -38.69670092
     atom   29 type  2   force =    -3.21480714   -0.07897263 -171.60307193
     atom   30 type  2   force =     3.10628879   -0.04534088 -173.04887370
     atom   31 type  1   force =    -0.89687612   -0.08207303  -62.11218263
     atom   32 type  1   force =     0.30762625    0.34166944  -64.01038906
     atom   33 type  2   force =     0.96672200    0.10158798 -167.81008255
     atom   34 type  2   force =    -0.64550174   -0.00744624 -173.37378151
     atom   35 type  1   force =    -0.89750233    0.03713844  -61.92715605
     atom   36 type  1   force =     0.30493788   -0.41805724  -63.71276747
     atom   37 type  1   force =     0.15140367    0.01752425  -93.20307729
     atom   38 type  1   force =    -0.16183270    0.52436623  -91.51578364
     atom   39 type  1   force =     1.55628159    0.02854542  -95.85395160
     atom   40 type  1   force =     0.10030724   -0.03845836  -99.46102349
     atom   41 type  3   force =    -2.52811403   -0.06293255   16.36517232
     atom   42 type  3   force =    -2.52811403   -0.06293255  -16.36517232
     atom   43 type  3   force =    -0.01470253   -1.24042031   18.06601193
     atom   44 type  3   force =    -0.01470253   -1.24042031  -18.06601193
     The core correction contribution to forces
     atom    1 type  1   force =    -0.01789399   -0.00028063   -0.00451864
     atom    2 type  1   force =    -0.00025068    0.00018474   -0.01033001
     atom    3 type  1   force =    -0.00013513   -0.00024869   -0.01086034
     atom    4 type  1   force =     0.00014002   -0.00906873    0.00615606
     atom    5 type  2   force =     0.00000000    0.00000000    0.00000000
     atom    6 type  2   force =     0.00000000    0.00000000    0.00000000
     atom    7 type  1   force =    -0.00010711   -0.00060814    0.00073594
     atom    8 type  1   force =     0.00124731   -0.00062515    0.00010072
     atom    9 type  2   force =     0.00000000    0.00000000    0.00000000
     atom   10 type  2   force =     0.00000000    0.00000000    0.00000000
     atom   11 type  1   force =    -0.00011277    0.00074261    0.00072691
     atom   12 type  1   force =     0.00124476    0.00079493    0.00015134
     atom   13 type  1   force =     0.00006101   -0.00031925    0.00052690
     atom   14 type  1   force =    -0.00027440    0.00003682   -0.00059085
     atom   15 type  1   force =     0.00018938   -0.00001032   -0.00013955
     atom   16 type  1   force =     0.00001303    0.00004119   -0.00318164
     atom   17 type  2   force =     0.00000000    0.00000000    0.00000000
     atom   18 type  2   force =     0.00000000    0.00000000    0.00000000
     atom   19 type  1   force =    -0.00020733   -0.00003844   -0.00000204
     atom   20 type  1   force =     0.00010299    0.00120826   -0.00000215
     atom   21 type  2   force =     0.00000000    0.00000000    0.00000000
     atom   22 type  2   force =     0.00000000    0.00000000    0.00000000
     atom   23 type  1   force =    -0.00030307   -0.00000526   -0.00000203
     atom   24 type  1   force =     0.00018411   -0.00123692   -0.00000215
     atom   25 type  1   force =     0.00018932   -0.00001031    0.00013742
     atom   26 type  1   force =     0.00001312    0.00004121    0.00317955
     atom   27 type  1   force =     0.00006100   -0.00031928   -0.00052918
     atom   28 type  1   force =    -0.00027440    0.00003684    0.00058865
     atom   29 type  2   force =     0.00000000    0.00000000    0.00000000
     atom   30 type  2   force =     0.00000000    0.00000000    0.00000000
     atom   31 type  1   force =    -0.00010713   -0.00060821   -0.00073776
     atom   32 type  1   force =     0.00124731   -0.00062511   -0.00010254
     atom   33 type  2   force =     0.00000000    0.00000000    0.00000000
     atom   34 type  2   force =     0.00000000    0.00000000    0.00000000
     atom   35 type  1   force =    -0.00011280    0.00074271   -0.00072872
     atom   36 type  1   force =     0.00124476    0.00079492   -0.00015315
     atom   37 type  1   force =    -0.00013507   -0.00024885    0.01085604
     atom   38 type  1   force =     0.00014000   -0.00907006   -0.00616123
     atom   39 type  1   force =    -0.01789482   -0.00028065    0.00451640
     atom   40 type  1   force =    -0.00025101    0.00018470    0.01032828
     atom   41 type  3   force =     0.00000000    0.00000000    0.00000000
     atom   42 type  3   force =     0.00000000    0.00000000    0.00000000
     atom   43 type  3   force =     0.00000000    0.00000000    0.00000000
     atom   44 type  3   force =     0.00000000    0.00000000    0.00000000
     The Hubbard contrib.    to forces
     atom    1 type  1   force =     0.00000000    0.00000000    0.00000000
     atom    2 type  1   force =     0.00000000    0.00000000    0.00000000
     atom    3 type  1   force =     0.00000000    0.00000000    0.00000000
     atom    4 type  1   force =     0.00000000    0.00000000    0.00000000
     atom    5 type  2   force =     0.00000000    0.00000000    0.00000000
     atom    6 type  2   force =     0.00000000    0.00000000    0.00000000
     atom    7 type  1   force =     0.00000000    0.00000000    0.00000000
     atom    8 type  1   force =     0.00000000    0.00000000    0.00000000
     atom    9 type  2   force =     0.00000000    0.00000000    0.00000000
     atom   10 type  2   force =     0.00000000    0.00000000    0.00000000
     atom   11 type  1   force =     0.00000000    0.00000000    0.00000000
     atom   12 type  1   force =     0.00000000    0.00000000    0.00000000
     atom   13 type  1   force =     0.00000000    0.00000000    0.00000000
     atom   14 type  1   force =     0.00000000    0.00000000    0.00000000
     atom   15 type  1   force =     0.00000000    0.00000000    0.00000000
     atom   16 type  1   force =     0.00000000    0.00000000    0.00000000
     atom   17 type  2   force =     0.00000000    0.00000000    0.00000000
     atom   18 type  2   force =     0.00000000    0.00000000    0.00000000
     atom   19 type  1   force =     0.00000000    0.00000000    0.00000000
     atom   20 type  1   force =     0.00000000    0.00000000    0.00000000
     atom   21 type  2   force =     0.00000000    0.00000000    0.00000000
     atom   22 type  2   force =     0.00000000    0.00000000    0.00000000
     atom   23 type  1   force =     0.00000000    0.00000000    0.00000000
     atom   24 type  1   force =     0.00000000    0.00000000    0.00000000
     atom   25 type  1   force =     0.00000000    0.00000000    0.00000000
     atom   26 type  1   force =     0.00000000    0.00000000    0.00000000
     atom   27 type  1   force =     0.00000000    0.00000000    0.00000000
     atom   28 type  1   force =     0.00000000    0.00000000    0.00000000
     atom   29 type  2   force =     0.00000000    0.00000000    0.00000000
     atom   30 type  2   force =     0.00000000    0.00000000    0.00000000
     atom   31 type  1   force =     0.00000000    0.00000000    0.00000000
     atom   32 type  1   force =     0.00000000    0.00000000    0.00000000
     atom   33 type  2   force =     0.00000000    0.00000000    0.00000000
     atom   34 type  2   force =     0.00000000    0.00000000    0.00000000
     atom   35 type  1   force =     0.00000000    0.00000000    0.00000000
     atom   36 type  1   force =     0.00000000    0.00000000    0.00000000
     atom   37 type  1   force =     0.00000000    0.00000000    0.00000000
     atom   38 type  1   force =     0.00000000    0.00000000    0.00000000
     atom   39 type  1   force =     0.00000000    0.00000000    0.00000000
     atom   40 type  1   force =     0.00000000    0.00000000    0.00000000
     atom   41 type  3   force =     0.00000000    0.00000000    0.00000000
     atom   42 type  3   force =     0.00000000    0.00000000    0.00000000
     atom   43 type  3   force =     0.00000000    0.00000000    0.00000000
     atom   44 type  3   force =     0.00000000    0.00000000    0.00000000
     The SCF correction term to forces
     atom    1 type  1   force =     0.00000040   -0.00000333    0.00000712
     atom    2 type  1   force =     0.00000048   -0.00000934    0.00000439
     atom    3 type  1   force =     0.00000462    0.00000359    0.00000757
     atom    4 type  1   force =    -0.00000283    0.00001195   -0.00000376
     atom    5 type  2   force =     0.00001381    0.00000983    0.00003325
     atom    6 type  2   force =    -0.00001306    0.00001045    0.00002673
     atom    7 type  1   force =     0.00000321   -0.00000916    0.00001727
     atom    8 type  1   force =    -0.00000332   -0.00000398    0.00001514
     atom    9 type  2   force =     0.00000541   -0.00000722    0.00005809
     atom   10 type  2   force =    -0.00000422   -0.00001295    0.00005649
     atom   11 type  1   force =     0.00000122    0.00000648    0.00002071
     atom   12 type  1   force =    -0.00000126    0.00000090    0.00001890
     atom   13 type  1   force =     0.00000584    0.00000147    0.00001974
     atom   14 type  1   force =    -0.00000573    0.00000223    0.00002079
     atom   15 type  1   force =     0.00000581   -0.00000096    0.00001710
     atom   16 type  1   force =    -0.00000567   -0.00000138    0.00002059
     atom   17 type  2   force =     0.00000625    0.00000164    0.00001209
     atom   18 type  2   force =    -0.00000673    0.00000199    0.00001210
     atom   19 type  1   force =     0.00000479    0.00000108    0.00000442
     atom   20 type  1   force =    -0.00000469   -0.00000496    0.00000444
     atom   21 type  2   force =     0.00000679   -0.00000181    0.00001185
     atom   22 type  2   force =    -0.00000760   -0.00000180    0.00001188
     atom   23 type  1   force =     0.00000469   -0.00000054    0.00000441
     atom   24 type  1   force =    -0.00000461    0.00000541    0.00000443
     atom   25 type  1   force =     0.00000579   -0.00000096   -0.00001000
     atom   26 type  1   force =    -0.00000565   -0.00000138   -0.00001395
     atom   27 type  1   force =     0.00000578    0.00000149   -0.00001523
     atom   28 type  1   force =    -0.00000567    0.00000224   -0.00001628
     atom   29 type  2   force =     0.00001376    0.00000987   -0.00003399
     atom   30 type  2   force =    -0.00001303    0.00001049   -0.00002760
     atom   31 type  1   force =     0.00000315   -0.00000934   -0.00001731
     atom   32 type  1   force =    -0.00000327   -0.00000417   -0.00001533
     atom   33 type  2   force =     0.00000529   -0.00000726   -0.00005871
     atom   34 type  2   force =    -0.00000406   -0.00001299   -0.00005833
     atom   35 type  1   force =     0.00000115    0.00000664   -0.00002074
     atom   36 type  1   force =    -0.00000121    0.00000108   -0.00001906
     atom   37 type  1   force =     0.00000455    0.00000361   -0.00001019
     atom   38 type  1   force =    -0.00000277    0.00001196    0.00000100
     atom   39 type  1   force =     0.00000031   -0.00000334   -0.00000993
     atom   40 type  1   force =     0.00000054   -0.00000934   -0.00000716
     atom   41 type  3   force =     0.00000109   -0.00000047   -0.00000019
     atom   42 type  3   force =     0.00000111   -0.00000047   -0.00000023
     atom   43 type  3   force =    -0.00000007   -0.00000014    0.00000135
     atom   44 type  3   force =    -0.00000006   -0.00000015   -0.00000176

     Total force =     0.173359     Total SCF correction =     0.000162

     BFGS Geometry Optimization
     Energy error            =      0.0E+00 Ry
     Gradient error          =      6.7E-02 Ry/Bohr

     number of scf cycles    =   1
     number of bfgs steps    =   0

     energy             new  =   -3432.6964675014 Ry

     new trust radius        =       0.0666938929 bohr
     new conv_thr            =       0.0000000010 Ry


ATOMIC_POSITIONS (crystal)
O             0.0087048668        0.5031718237        0.2713453351
O             0.4779769559        0.5027578364        0.2736443628
O            -0.0007949738        0.0008005378        0.3084721118
O             0.4968036787       -0.0023653094        0.3007461194
Ru            0.2425390936        0.0026016908        0.3568262785
Ru            0.7532750212        0.0027765360        0.3561670688
O             0.2477988218        0.3106049161        0.3591601748
O             0.7517216390        0.3132885982        0.3566644079
Ru            0.0021121725        0.5024522497        0.3581394919
Ru            0.5035691261        0.5031280768        0.3515602861
O             0.2474456674        0.6944608420        0.3594185290
O             0.7520357999        0.6919307954        0.3571198270
O            -0.0036019722        0.0017208989        0.4120400182
O             0.5017024642        0.0022877192        0.4122986007
O            -0.0002199511        0.5017995470        0.4462759312
O             0.4965096753        0.5020300016        0.4411739187
Ru           -0.0033397567        0.0023411585        0.5000010000
Ru            0.4999254889        0.0016088006        0.5000010000
O             0.2498374029        0.1903156383        0.5000010000
O             0.7470509330        0.1938587383        0.5000010000
Ru            0.2542875838        0.5018821600        0.5000010000
Ru            0.7451612267        0.5019250018        0.5000010000
O             0.2498154678        0.8135453938        0.5000010000
O             0.7469914170        0.8099760148        0.5000010000
O            -0.0002199511        0.5017995470        0.5537250688
O             0.4965096753        0.5020300016        0.5588270813
O            -0.0036019722        0.0017208989        0.5879609818
O             0.5017024642        0.0022877192        0.5877023993
Ru            0.2425390936        0.0026016908        0.6431747215
Ru            0.7532750212        0.0027765360        0.6438339312
O             0.2477988218        0.3106049161        0.6408408252
O             0.7517216390        0.3132885982        0.6433365921
Ru            0.0021121725        0.5024522497        0.6418615081
Ru            0.5035691261        0.5031280768        0.6484407139
O             0.2474456674        0.6944608420        0.6405824710
O             0.7520357999        0.6919307954        0.6428811730
O            -0.0007949738        0.0008005378        0.6915298882
O             0.4968036787       -0.0023653094        0.6992558806
O             0.0087048668        0.5031718237        0.7286556649
O             0.4779769559        0.5027578364        0.7263566372
H             0.1494126680        0.5060587809        0.2560522939
H             0.1494126680        0.5060587809        0.7439477061
H             0.4957793649        0.0669850056        0.2600700770
H             0.4957793649        0.0669850056        0.7399299230



     Writing config-only to output data dir /storage/home/mgm6007/ixd4/Maria/Strain2_Files/RuO2-110-0-03/RuO2-110-0-03.save/
     NEW-OLD atomic charge density approx. for the potential

     Check: negative core charge=   -0.000001

     negative rho (up, down):  1.466E-04 0.000E+00

     add environment contribution to local potential
     Polarization accuracy = 7.3E-12, # of iterations =  45

     total cpu time spent up to now is     7284.2 secs

     per-process dynamical memory:   216.4 Mb

     Self-consistent Calculation

     iteration #  1     ecut=    50.00 Ry     beta= 0.70
     Davidson diagonalization with overlap
     ethr =  1.00E-06,  avg # of iterations = 11.0

     negative rho (up, down):  3.832E-04 0.000E+00

     add environment contribution to local potential
     Polarization accuracy = 8.1E-12, # of iterations =  45

     total cpu time spent up to now is     7437.5 secs

     total energy              =   -3432.70971871 Ry
     estimated scf accuracy    <       0.01925514 Ry
     electrostatic embedding   =      -0.05582694 Ry
     cavitation energy         =       0.02129179 Ry
     PV energy                 =      -0.08026265 Ry
     correction to one-el term =     191.09491046 Ry

     iteration #  2     ecut=    50.00 Ry     beta= 0.70
     Davidson diagonalization with overlap
     ethr =  5.29E-06,  avg # of iterations =  2.0

     negative rho (up, down):  3.784E-04 0.000E+00

     add environment contribution to local potential
     Polarization accuracy = 7.3E-12, # of iterations =  45

     total cpu time spent up to now is     7593.0 secs

     total energy              =   -3432.71091177 Ry
     estimated scf accuracy    <       0.03183284 Ry
     electrostatic embedding   =      -0.05664306 Ry
     cavitation energy         =       0.02129023 Ry
     PV energy                 =      -0.08020775 Ry
     correction to one-el term =     191.24115262 Ry

     iteration #  3     ecut=    50.00 Ry     beta= 0.70
     Davidson diagonalization with overlap
     ethr =  5.29E-06,  avg # of iterations =  1.0

     negative rho (up, down):  5.326E-04 0.000E+00

     add environment contribution to local potential
     Polarization accuracy = 7.8E-12, # of iterations =  45

     total cpu time spent up to now is     7741.7 secs

     total energy              =   -3432.71251782 Ry
     estimated scf accuracy    <       0.00217415 Ry
     electrostatic embedding   =      -0.05677583 Ry
     cavitation energy         =       0.02127846 Ry
     PV energy                 =      -0.08022488 Ry
     correction to one-el term =     191.20371594 Ry

     iteration #  4     ecut=    50.00 Ry     beta= 0.70
     Davidson diagonalization with overlap
     ethr =  5.97E-07,  avg # of iterations =  2.0

     negative rho (up, down):  6.706E-04 0.000E+00

     add environment contribution to local potential
     Polarization accuracy = 7.5E-12, # of iterations =  46

     total cpu time spent up to now is     7900.7 secs

     total energy              =   -3432.71258477 Ry
     estimated scf accuracy    <       0.00053880 Ry
     electrostatic embedding   =      -0.05720880 Ry
     cavitation energy         =       0.02127270 Ry
     PV energy                 =      -0.08022523 Ry
     correction to one-el term =     191.22650997 Ry

     iteration #  5     ecut=    50.00 Ry     beta= 0.70
     Davidson diagonalization with overlap
     ethr =  1.48E-07,  avg # of iterations =  2.0

     negative rho (up, down):  7.063E-04 0.000E+00

     add environment contribution to local potential
     Polarization accuracy = 9.8E-12, # of iterations =  45

     total cpu time spent up to now is     8045.5 secs

     total energy              =   -3432.71262931 Ry
     estimated scf accuracy    <       0.00031303 Ry
     electrostatic embedding   =      -0.05770968 Ry
     cavitation energy         =       0.02126503 Ry
     PV energy                 =      -0.08022719 Ry
     correction to one-el term =     191.23588219 Ry

     iteration #  6     ecut=    50.00 Ry     beta= 0.70
     Davidson diagonalization with overlap
     ethr =  8.60E-08,  avg # of iterations =  2.0

     negative rho (up, down):  6.790E-04 0.000E+00

     add environment contribution to local potential
     Polarization accuracy = 7.1E-12, # of iterations =  45

     total cpu time spent up to now is     8204.3 secs

     total energy              =   -3432.71265190 Ry
     estimated scf accuracy    <       0.00007725 Ry
     electrostatic embedding   =      -0.05801153 Ry
     cavitation energy         =       0.02126187 Ry
     PV energy                 =      -0.08022974 Ry
     correction to one-el term =     191.23215936 Ry

     iteration #  7     ecut=    50.00 Ry     beta= 0.70
     Davidson diagonalization with overlap
     ethr =  2.12E-08,  avg # of iterations =  2.0

     negative rho (up, down):  6.160E-04 0.000E+00

     add environment contribution to local potential
     Polarization accuracy = 8.3E-12, # of iterations =  45

     total cpu time spent up to now is     8359.9 secs

     total energy              =   -3432.71265698 Ry
     estimated scf accuracy    <       0.00002048 Ry
     electrostatic embedding   =      -0.05827923 Ry
     cavitation energy         =       0.02126018 Ry
     PV energy                 =      -0.08023294 Ry
     correction to one-el term =     191.21801463 Ry

     iteration #  8     ecut=    50.00 Ry     beta= 0.70
     Davidson diagonalization with overlap
     ethr =  5.63E-09,  avg # of iterations =  3.0

     negative rho (up, down):  5.151E-04 0.000E+00

     add environment contribution to local potential
     Polarization accuracy = 5.8E-12, # of iterations =  46

     total cpu time spent up to now is     8510.7 secs

     total energy              =   -3432.71266031 Ry
     estimated scf accuracy    <       0.00001571 Ry
     electrostatic embedding   =      -0.05853802 Ry
     cavitation energy         =       0.02125877 Ry
     PV energy                 =      -0.08023633 Ry
     correction to one-el term =     191.19633602 Ry

     iteration #  9     ecut=    50.00 Ry     beta= 0.70
     Davidson diagonalization with overlap
     ethr =  4.32E-09,  avg # of iterations =  3.0

     negative rho (up, down):  4.213E-04 0.000E+00

     add environment contribution to local potential
     Polarization accuracy = 6.7E-12, # of iterations =  45

     total cpu time spent up to now is     8662.6 secs

     total energy              =   -3432.71266332 Ry
     estimated scf accuracy    <       0.00000349 Ry
     electrostatic embedding   =      -0.05888707 Ry
     cavitation energy         =       0.02125760 Ry
     PV energy                 =      -0.08024018 Ry
     correction to one-el term =     191.16556603 Ry

     iteration # 10     ecut=    50.00 Ry     beta= 0.70
     Davidson diagonalization with overlap
     ethr =  9.60E-10,  avg # of iterations =  3.0

     negative rho (up, down):  3.276E-04 0.000E+00

     add environment contribution to local potential
     Polarization accuracy = 7.0E-12, # of iterations =  46

     total cpu time spent up to now is     8830.2 secs

     total energy              =   -3432.71266402 Ry
     estimated scf accuracy    <       0.00000124 Ry
     electrostatic embedding   =      -0.05913866 Ry
     cavitation energy         =       0.02125722 Ry
     PV energy                 =      -0.08024210 Ry
     correction to one-el term =     191.14059465 Ry

     iteration # 11     ecut=    50.00 Ry     beta= 0.70
     Davidson diagonalization with overlap
     ethr =  3.40E-10,  avg # of iterations =  3.0

     negative rho (up, down):  2.561E-04 0.000E+00

     add environment contribution to local potential
     Polarization accuracy = 8.6E-12, # of iterations =  45

     total cpu time spent up to now is     9003.1 secs

     total energy              =   -3432.71266380 Ry
     estimated scf accuracy    <       0.00000112 Ry
     electrostatic embedding   =      -0.05933163 Ry
     cavitation energy         =       0.02125739 Ry
     PV energy                 =      -0.08024296 Ry
     correction to one-el term =     191.11765779 Ry

     iteration # 12     ecut=    50.00 Ry     beta= 0.70
[...]
     atom   20 type  1   force =    -0.17197591    1.02424270   -0.00007756
     atom   21 type  2   force =     1.44585124   -0.00249915   -0.00025455
     atom   22 type  2   force =    -1.46073081   -0.00868382   -0.00024812
     atom   23 type  1   force =     0.14050055   -0.96772525   -0.00007899
     atom   24 type  1   force =    -0.14906179   -1.02042406   -0.00007761
     atom   25 type  1   force =    -0.14356170   -0.01238951   25.05842147
     atom   26 type  1   force =     0.16450467   -0.01332455   27.27637495
     atom   27 type  1   force =    -0.13560237   -0.00585321   37.23981712
     atom   28 type  1   force =     0.01534286    0.01418288   39.06803186
     atom   29 type  2   force =     3.50541188    0.04190325  172.47457367
     atom   30 type  2   force =    -3.42084569    0.03160051  173.14968796
     atom   31 type  1   force =     0.88354218   -0.82026247   61.87256488
     atom   32 type  1   force =    -0.52626178   -0.92181740   63.46226285
     atom   33 type  2   force =    -0.84362161   -0.04895309  168.46415166
     atom   34 type  2   force =     0.77503183    0.01801742  173.11675454
     atom   35 type  1   force =     0.88688059    0.82485986   61.80027284
     atom   36 type  1   force =    -0.52994548    0.93438033   63.30884598
     atom   37 type  1   force =    -0.18346230   -0.01915414   94.81929369
     atom   38 type  1   force =     0.15677497   -0.59678479   90.16582229
     atom   39 type  1   force =    -3.36051693   -0.03979761   96.08456105
     atom   40 type  1   force =     0.06486423    0.04608430  100.59938356
     atom   41 type  3   force =     2.73084365    0.04847412  -16.44225771
     atom   42 type  3   force =     2.73092539    0.04847524   16.44226932
     atom   43 type  3   force =     0.02492995    0.51704915  -18.22504946
     atom   44 type  3   force =     0.02492916    0.51713202   18.22540123
     The local contribution  to forces
     atom    1 type  1   force =     1.51334550    0.02130141   95.64204876
     atom    2 type  1   force =    -0.02875277   -0.01682811   99.32093588
     atom    3 type  1   force =     0.15659325    0.00674406   93.66502166
     atom    4 type  1   force =    -0.13519364    0.20299874   91.19667885
     atom    5 type  2   force =    -3.51178821   -0.05214595  172.52569906
     atom    6 type  2   force =     3.42767424   -0.04266932  173.16778793
     atom    7 type  1   force =    -0.89169661    0.86539290   61.97993766
     atom    8 type  1   force =     0.59897847    0.95456595   63.48200322
     atom    9 type  2   force =     0.80282155    0.05425450  168.38954707
     atom   10 type  2   force =    -0.73444634   -0.00533786  173.16083700
     atom   11 type  1   force =    -0.89239776   -0.86273620   61.90333711
     atom   12 type  1   force =     0.59941427   -0.95792033   63.32678626
     atom   13 type  1   force =     0.12861289   -0.00608968   37.31274890
     atom   14 type  1   force =    -0.02299630   -0.01292935   38.96765673
     atom   15 type  1   force =     0.15549316    0.01202385   25.06606232
     atom   16 type  1   force =    -0.16265291    0.01472619   27.05822520
     atom   17 type  2   force =     0.08541830   -0.02033716   -0.00584928
     atom   18 type  2   force =     0.01788756    0.00784291   -0.00587383
     atom   19 type  1   force =    -0.18109525   -1.00882087   -0.00245210
     atom   20 type  1   force =     0.18214084   -1.06158640   -0.00245598
     atom   21 type  2   force =    -1.44310288    0.00291722   -0.00601596
     atom   22 type  2   force =     1.45179345    0.00933673   -0.00602849
     atom   23 type  1   force =    -0.15991472    1.00850055   -0.00245175
     atom   24 type  1   force =     0.16100328    1.05698414   -0.00245559
     atom   25 type  1   force =     0.15549463    0.01202419  -25.06782655
     atom   26 type  1   force =    -0.16264893    0.01472669  -27.05999320
     atom   27 type  1   force =     0.12861272   -0.00609028  -37.31450246
     atom   28 type  1   force =    -0.02299217   -0.01292891  -38.96942317
     atom   29 type  2   force =    -3.51178733   -0.05214482 -172.53177940
     atom   30 type  2   force =     3.42767522   -0.04266741 -173.17386591
     atom   31 type  1   force =    -0.89167533    0.86540184  -61.98238144
     atom   32 type  1   force =     0.59895604    0.95457323  -63.48446163
     atom   33 type  2   force =     0.80282403    0.05425436 -168.39539456
     atom   34 type  2   force =    -0.73447604   -0.00533842 -173.16656607
     atom   35 type  1   force =    -0.89237662   -0.86274468  -61.90578081
     atom   36 type  1   force =     0.59939206   -0.95792732  -63.32924439
     atom   37 type  1   force =     0.15659017    0.00674044  -93.66886818
     atom   38 type  1   force =    -0.13519395    0.20303335  -91.20037942
     atom   39 type  1   force =     1.51337920    0.02130196  -95.64359473
     atom   40 type  1   force =    -0.02879243   -0.01682868  -99.32232510
     atom   41 type  3   force =    -2.65208448   -0.04610975   16.41091476
     atom   42 type  3   force =    -2.65208448   -0.04610975  -16.41091476
     atom   43 type  3   force =    -0.02130063   -0.50562794   18.17524026
     atom   44 type  3   force =    -0.02130063   -0.50562794  -18.17524026
     The core correction contribution to forces
     atom    1 type  1   force =    -0.01786332   -0.00022947   -0.00425102
     atom    2 type  1   force =    -0.00011838    0.00006989   -0.01055279
     atom    3 type  1   force =    -0.00007973   -0.00009290   -0.01123936
     atom    4 type  1   force =     0.00005585   -0.00378796    0.00869864
     atom    5 type  2   force =     0.00000000    0.00000000    0.00000000
     atom    6 type  2   force =     0.00000000    0.00000000    0.00000000
     atom    7 type  1   force =    -0.00017742   -0.00015483    0.00098619
     atom    8 type  1   force =     0.00082073   -0.00021031    0.00033336
     atom    9 type  2   force =     0.00000000    0.00000000    0.00000000
     atom   10 type  2   force =     0.00000000    0.00000000    0.00000000
     atom   11 type  1   force =    -0.00017145    0.00020611    0.00098676
     atom   12 type  1   force =     0.00081137    0.00027668    0.00036502
     atom   13 type  1   force =    -0.00004108   -0.00014581    0.00072761
     atom   14 type  1   force =    -0.00010479    0.00003213   -0.00104936
     atom   15 type  1   force =     0.00018466   -0.00000756   -0.00012225
     atom   16 type  1   force =    -0.00001256    0.00001371   -0.00294221
     atom   17 type  2   force =     0.00000000    0.00000000    0.00000000
     atom   18 type  2   force =     0.00000000    0.00000000    0.00000000
     atom   19 type  1   force =    -0.00015122   -0.00012618   -0.00000203
     atom   20 type  1   force =     0.00006173   -0.00006160   -0.00000204
     atom   21 type  2   force =     0.00000000    0.00000000    0.00000000
     atom   22 type  2   force =     0.00000000    0.00000000    0.00000000
     atom   23 type  1   force =    -0.00016605    0.00011873   -0.00000203
     atom   24 type  1   force =     0.00007589    0.00005462   -0.00000203
     atom   25 type  1   force =     0.00018461   -0.00000756    0.00012009
     atom   26 type  1   force =    -0.00001252    0.00001371    0.00294016
     atom   27 type  1   force =    -0.00004108   -0.00014583   -0.00072994
     atom   28 type  1   force =    -0.00010479    0.00003214    0.00104713
     atom   29 type  2   force =     0.00000000    0.00000000    0.00000000
     atom   30 type  2   force =     0.00000000    0.00000000    0.00000000
     atom   31 type  1   force =    -0.00017742   -0.00015490   -0.00098792
     atom   32 type  1   force =     0.00082072   -0.00021030   -0.00033516
     atom   33 type  2   force =     0.00000000    0.00000000    0.00000000
     atom   34 type  2   force =     0.00000000    0.00000000    0.00000000
     atom   35 type  1   force =    -0.00017145    0.00020619   -0.00098849
     atom   36 type  1   force =     0.00081136    0.00027668   -0.00036681
     atom   37 type  1   force =    -0.00007970   -0.00009296    0.01123531
     atom   38 type  1   force =     0.00005584   -0.00378856   -0.00870423
     atom   39 type  1   force =    -0.01786411   -0.00022948    0.00424867
     atom   40 type  1   force =    -0.00011858    0.00006988    0.01055106
     atom   41 type  3   force =     0.00000000    0.00000000    0.00000000
     atom   42 type  3   force =     0.00000000    0.00000000    0.00000000
     atom   43 type  3   force =     0.00000000    0.00000000    0.00000000
     atom   44 type  3   force =     0.00000000    0.00000000    0.00000000
     The Hubbard contrib.    to forces
     atom    1 type  1   force =     0.00000000    0.00000000    0.00000000
     atom    2 type  1   force =     0.00000000    0.00000000    0.00000000
     atom    3 type  1   force =     0.00000000    0.00000000    0.00000000
     atom    4 type  1   force =     0.00000000    0.00000000    0.00000000
     atom    5 type  2   force =     0.00000000    0.00000000    0.00000000
     atom    6 type  2   force =     0.00000000    0.00000000    0.00000000
     atom    7 type  1   force =     0.00000000    0.00000000    0.00000000
     atom    8 type  1   force =     0.00000000    0.00000000    0.00000000
     atom    9 type  2   force =     0.00000000    0.00000000    0.00000000
     atom   10 type  2   force =     0.00000000    0.00000000    0.00000000
     atom   11 type  1   force =     0.00000000    0.00000000    0.00000000
     atom   12 type  1   force =     0.00000000    0.00000000    0.00000000
     atom   13 type  1   force =     0.00000000    0.00000000    0.00000000
     atom   14 type  1   force =     0.00000000    0.00000000    0.00000000
     atom   15 type  1   force =     0.00000000    0.00000000    0.00000000
     atom   16 type  1   force =     0.00000000    0.00000000    0.00000000
     atom   17 type  2   force =     0.00000000    0.00000000    0.00000000
     atom   18 type  2   force =     0.00000000    0.00000000    0.00000000
     atom   19 type  1   force =     0.00000000    0.00000000    0.00000000
     atom   20 type  1   force =     0.00000000    0.00000000    0.00000000
     atom   21 type  2   force =     0.00000000    0.00000000    0.00000000
     atom   22 type  2   force =     0.00000000    0.00000000    0.00000000
     atom   23 type  1   force =     0.00000000    0.00000000    0.00000000
     atom   24 type  1   force =     0.00000000    0.00000000    0.00000000
     atom   25 type  1   force =     0.00000000    0.00000000    0.00000000
     atom   26 type  1   force =     0.00000000    0.00000000    0.00000000
     atom   27 type  1   force =     0.00000000    0.00000000    0.00000000
     atom   28 type  1   force =     0.00000000    0.00000000    0.00000000
     atom   29 type  2   force =     0.00000000    0.00000000    0.00000000
     atom   30 type  2   force =     0.00000000    0.00000000    0.00000000
     atom   31 type  1   force =     0.00000000    0.00000000    0.00000000
     atom   32 type  1   force =     0.00000000    0.00000000    0.00000000
     atom   33 type  2   force =     0.00000000    0.00000000    0.00000000
     atom   34 type  2   force =     0.00000000    0.00000000    0.00000000
     atom   35 type  1   force =     0.00000000    0.00000000    0.00000000
     atom   36 type  1   force =     0.00000000    0.00000000    0.00000000
     atom   37 type  1   force =     0.00000000    0.00000000    0.00000000
     atom   38 type  1   force =     0.00000000    0.00000000    0.00000000
     atom   39 type  1   force =     0.00000000    0.00000000    0.00000000
     atom   40 type  1   force =     0.00000000    0.00000000    0.00000000
     atom   41 type  3   force =     0.00000000    0.00000000    0.00000000
     atom   42 type  3   force =     0.00000000    0.00000000    0.00000000
     atom   43 type  3   force =     0.00000000    0.00000000    0.00000000
     atom   44 type  3   force =     0.00000000    0.00000000    0.00000000
     The SCF correction term to forces
     atom    1 type  1   force =    -0.00000009   -0.00000021    0.00000105
     atom    2 type  1   force =     0.00000017   -0.00000102    0.00000155
     atom    3 type  1   force =    -0.00000019    0.00000071    0.00000124
     atom    4 type  1   force =     0.00000028    0.00000156    0.00000039
     atom    5 type  2   force =     0.00000192    0.00000083    0.00000325
     atom    6 type  2   force =    -0.00000198    0.00000099    0.00000253
     atom    7 type  1   force =     0.00000083   -0.00000037    0.00000157
     atom    8 type  1   force =    -0.00000084   -0.00000044    0.00000110
     atom    9 type  2   force =    -0.00000004   -0.00000065    0.00000497
     atom   10 type  2   force =     0.00000013   -0.00000119    0.00000430
     atom   11 type  1   force =     0.00000066    0.00000023    0.00000151
     atom   12 type  1   force =    -0.00000068    0.00000025    0.00000143
     atom   13 type  1   force =    -0.00000004    0.00000022    0.00000205
     atom   14 type  1   force =    -0.00000009    0.00000018    0.00000106
     atom   15 type  1   force =    -0.00000007   -0.00000034    0.00000175
     atom   16 type  1   force =     0.00000003   -0.00000023    0.00000152
     atom   17 type  2   force =     0.00000007    0.00000028   -0.00000001
     atom   18 type  2   force =    -0.00000004    0.00000025   -0.00000001
     atom   19 type  1   force =    -0.00000022    0.00000014   -0.00000000
     atom   20 type  1   force =     0.00000017    0.00000020   -0.00000000
     atom   21 type  2   force =     0.00000068   -0.00000046   -0.00000001
     atom   22 type  2   force =    -0.00000067   -0.00000043   -0.00000001
     atom   23 type  1   force =    -0.00000020   -0.00000013   -0.00000000
     atom   24 type  1   force =     0.00000015   -0.00000021   -0.00000000
     atom   25 type  1   force =    -0.00000007   -0.00000034   -0.00000175
     atom   26 type  1   force =     0.00000003   -0.00000023   -0.00000152
     atom   27 type  1   force =    -0.00000004    0.00000022   -0.00000206
     atom   28 type  1   force =    -0.00000009    0.00000018   -0.00000106
     atom   29 type  2   force =     0.00000193    0.00000082   -0.00000324
     atom   30 type  2   force =    -0.00000198    0.00000098   -0.00000253
     atom   31 type  1   force =     0.00000083   -0.00000037   -0.00000157
     atom   32 type  1   force =    -0.00000084   -0.00000044   -0.00000110
     atom   33 type  2   force =    -0.00000003   -0.00000064   -0.00000497
     atom   34 type  2   force =     0.00000013   -0.00000118   -0.00000430
     atom   35 type  1   force =     0.00000066    0.00000023   -0.00000151
     atom   36 type  1   force =    -0.00000069    0.00000026   -0.00000143
     atom   37 type  1   force =    -0.00000019    0.00000071   -0.00000123
     atom   38 type  1   force =     0.00000028    0.00000155   -0.00000039
     atom   39 type  1   force =    -0.00000009   -0.00000020   -0.00000105
     atom   40 type  1   force =     0.00000017   -0.00000102   -0.00000155
     atom   41 type  3   force =     0.00000012   -0.00000003    0.00000011
     atom   42 type  3   force =     0.00000012   -0.00000003   -0.00000011
     atom   43 type  3   force =     0.00000003    0.00000007    0.00000031
     atom   44 type  3   force =     0.00000003    0.00000007   -0.00000031

     Total force =     0.000410     Total SCF correction =     0.000014
     Energy error            =      3.3E-07 Ry
     Gradient error          =      1.3E-04 Ry/Bohr

     number of scf cycles    =  53
     number of bfgs steps    =  52

     energy             old  =   -3432.7183647488 Ry
     energy             new  =   -3432.7183650833 Ry

     CASE: energy            _new < energy            _old

     new trust radius        =       0.0005195331 bohr
     new conv_thr            =            1.0E-11 Ry


ATOMIC_POSITIONS (crystal)
O             0.0028365132        0.5041149052        0.2711219814
O             0.4837073100        0.5042502035        0.2736774162
O            -0.0003583377        0.0033393891        0.3072417552
O             0.4979212060        0.0022822457        0.3018457041
Ru            0.2422696703        0.0041228260        0.3565719058
Ru            0.7549954106        0.0041548106        0.3561801026
O             0.2477169377        0.3138830963        0.3595325189
O             0.7513267867        0.3153233422        0.3575437210
Ru            0.0006154663        0.5039551131        0.3581143805
Ru            0.5014100429        0.5043015878        0.3516245742
O             0.2473882465        0.6942059517        0.3596385195
O             0.7516163416        0.6927510739        0.3577851308
O            -0.0019187695        0.0037679074        0.4113000454
O             0.5004025627        0.0039569154        0.4119792735
O             0.0001824985        0.5037001205        0.4465379213
O             0.4992875108        0.5039356507        0.4425578695
Ru           -0.0011514579        0.0040791650        0.5000010000
Ru            0.4992697436        0.0036545265        0.5000010000
O             0.2494502103        0.1919208201        0.5000010000
O             0.7482584366        0.1921998478        0.5000010000
Ru            0.2535361575        0.5038398356        0.5000010000
Ru            0.7469382093        0.5038427960        0.5000010000
O             0.2491771392        0.8157895092        0.5000010000
O             0.7485329643        0.8154944085        0.5000010000
O             0.0001824985        0.5037001205        0.5534630787
O             0.4992875108        0.5039356507        0.5574431305
O            -0.0019187695        0.0037679074        0.5887009546
O             0.5004025627        0.0039569154        0.5880217265
Ru            0.2422696703        0.0041228260        0.6434290942
Ru            0.7549954106        0.0041548106        0.6438208974
O             0.2477169377        0.3138830963        0.6404684811
O             0.7513267867        0.3153233422        0.6424572790
Ru            0.0006154663        0.5039551131        0.6418866195
Ru            0.5014100429        0.5043015878        0.6483764258
O             0.2473882465        0.6942059517        0.6403624805
O             0.7516163416        0.6927510739        0.6422158692
O            -0.0003583377        0.0033393891        0.6927602448
O             0.4979212060        0.0022822457        0.6981562959
O             0.0028365132        0.5041149052        0.7288790186
O             0.4837073100        0.5042502035        0.7263235838
H             0.1435815403        0.5062550007        0.2547180506
H             0.1435815403        0.5062550007        0.7452819494
H             0.4976483615        0.0305064058        0.2583722618
H             0.4976483615        0.0305064058        0.7416277382



     Writing config-only to output data dir /storage/home/mgm6007/ixd4/Maria/Strain2_Files/RuO2-110-0-03/RuO2-110-0-03.save/
     NEW-OLD atomic charge density approx. for the potential

     Check: negative core charge=   -0.000001

     negative rho (up, down):  1.523E-04 0.000E+00

     add environment contribution to local potential
     Polarization accuracy = 2.8E-12, # of iterations =  47

     total cpu time spent up to now is   207321.0 secs

     per-process dynamical memory:   240.7 Mb

     Self-consistent Calculation

     iteration #  1     ecut=    50.00 Ry     beta= 0.70
     Davidson diagonalization with overlap
     ethr =  1.00E-06,  avg # of iterations =  2.0

     Threshold (ethr) on eigenvalues was too large:
     Diagonalizing with lowered threshold

     Davidson diagonalization with overlap
     ethr =  1.83E-10,  avg # of iterations =  4.0

     negative rho (up, down):  1.531E-04 0.000E+00

     add environment contribution to local potential
