
     Program PWSCF v.7.2 starts on 19Jul2023 at 11:40: 5 
        Git branch: heads/qe-7.2
        Last git commit: b4c5e8deeb7d1863e7553a87b45f8d22c21926a5
        Last git commit date: Mon Mar 27 16:12:09 2023 +0000
        Last git commit subject: Merge branch 'merge_fix_hubbard' into 'develop'

     This program is part of the open-source Quantum ESPRESSO suite
     for quantum simulation of materials; please cite
         "P. Giannozzi et al., J. Phys.:Condens. Matter 21 395502 (2009);
         "P. Giannozzi et al., J. Phys.:Condens. Matter 29 465901 (2017);
         "P. Giannozzi et al., J. Chem. Phys. 152 154105 (2020);
          URL http://www.quantum-espresso.org", 
     in publications or presentations arising from this work. More details at
     http://www.quantum-espresso.org/quote

     Parallel version (MPI), running on    20 processors

     MPI processes distributed on     1 nodes
     100910 MiB available memory on the printing compute node when the environment starts
 
     Reading input from RuO2-110-0-24.in

     Current dimensions of program PWSCF are:
     Max number of different atomic species (ntypx) = 10
     Max number of k-points (npk) =  40000
     Max angular momentum in pseudopotentials (lmaxx) =  4
 
     Reading input from environ.in:
     * Environ restarting
     * setting up water environment
     * using electronic solvent mode
     * setting boundary derivatives method to SCCS default
     
     file O.pbe-n-kjpaw_psl.0.1.UPF: wavefunction(s)  2P renormalized
     Message from routine setup:
     using ibrav=0 with symmetry is DISCOURAGED, use correct ibrav instead
 
     R & G space division:  proc/nbgrp/npool/nimage =      20
     Subspace diagonalization in iterative solution of the eigenvalue problem:
     one sub-group per band group will be used
     scalapack distributed-memory algorithm (size of sub-group:  2*  2 procs)

 
     Parallelization info
     --------------------
     sticks:   dense  smooth     PW     G-vecs:    dense   smooth      PW
     Min         282     113     29                56190    14217    1913
     Max         283     114     30                56201    14227    1932
     Sum        5657    2263    593              1123933   284439   38425
 
     Using Slab Decomposition
 


     bravais-lattice index     =            0
     lattice parameter (alat)  =      12.1041  a.u.
     unit-cell volume          =    5954.5483 (a.u.)^3
     number of atoms/cell      =           44
     number of atomic types    =            3
     number of electrons       =       364.00
     number of Kohn-Sham states=          218
     kinetic-energy cutoff     =      50.0000  Ry
     charge density cutoff     =     500.0000  Ry
     scf convergence threshold =      1.0E-09
     mixing beta               =       0.7000
     number of iterations used =            8  local-TF  mixing
     energy convergence thresh.=      1.0E-04
     force convergence thresh. =      1.0E-04
     Exchange-correlation= PBE
                           (   1   4   3   4   0   0   0)
     nstep                     =          200


     ================================================================================
 
                                  Environ Setup Summary

     ================================================================================
 
     Please cite

          O. Andreussi, I. Dabo and N. Marzari, J. Chem. Phys. 136, 064102 (2012)

     in publications or presentations arising from this work.

     ================================================================================
 
     Parameters
     ==========

     compensation onset threshold      =               0.1000E+00
     static permittivity               =                    78.30
     surface tension in input (dyn/cm) =                    47.90
     surface tension in internal units =               0.6153E-04
     external pressure in input (GPa)  =                    -0.36
     external pressure in inter. units =              -0.2447E-04

     Solvent Boundary
     ================

     solvent mode                      =               electronic
     derivatives method                =                    chain
     numerical core for derivatives    =                      fft
     switching function adopted        =                     SCCS
     density limit for vacuum region   =               0.5000E-02
     density limit for bulk solvent    =               0.1000E-03

     Electrostatic Setup
     ===================

     electrostatic problem to solve    =              generalized
     numerical solver adopted          =                       cg
     type of auxiliary density adopted =                     none
     numerical core for poisson        =                      fft
     type of pbc corrections           =                parabolic
     numerical core for corrections    =                      1da

     ================================================================================
 

     celldm(1)=  12.104053  celldm(2)=   0.000000  celldm(3)=   0.000000
     celldm(4)=   0.000000  celldm(5)=   0.000000  celldm(6)=   0.000000

     crystal axes: (cart. coord. in units of alat)
               a(1) = (   1.000000   0.000000   0.000000 )  
               a(2) = (   0.000000   0.971735   0.000000 )  
               a(3) = (   0.000000   0.000000   3.455479 )  

     reciprocal axes: (cart. coord. in units 2 pi/alat)
               b(1) = (  1.000000  0.000000  0.000000 )  
               b(2) = (  0.000000  1.029087  0.000000 )  
               b(3) = (  0.000000  0.000000  0.289395 )  


     PseudoPot. # 1 for O  read from file:
     /gpfs/group/ixd4/default/Simon/pseudopotentials/materialscloud/SSSP_1.3.0_PBE_efficiency/O.pbe-n-kjpaw_psl.0.1.UPF
     MD5 check sum: 0234752ac141de4415c5fc33072bef88
     Pseudo is Projector augmented-wave + core cor, Zval =  6.0
     Generated using "atomic" code by A. Dal Corso  v.5.0.99 svn rev. 10869
     Shape of augmentation charge: BESSEL
     Using radial grid of 1095 points,  4 beta functions with: 
                l(1) =   0
                l(2) =   0
                l(3) =   1
                l(4) =   1
     Q(r) pseudized with 0 coefficients 


     PseudoPot. # 2 for Ru read from file:
     /gpfs/group/ixd4/default/Simon/pseudopotentials/materialscloud/SSSP_1.3.0_PBE_efficiency/Ru_ONCV_PBE-1.0.oncvpsp.upf
     MD5 check sum: be037bb81c227cfb9b1461a9f099f4bd
     Pseudo is Norm-conserving, Zval = 16.0
     Generated using ONCVPSP code by D. R. Hamann
     Using radial grid of 1458 points,  6 beta functions with: 
                l(1) =   0
                l(2) =   0
                l(3) =   1
                l(4) =   1
                l(5) =   2
                l(6) =   2

     PseudoPot. # 3 for H  read from file:
     /gpfs/group/ixd4/default/Simon/pseudopotentials/materialscloud/SSSP_1.3.0_PBE_efficiency/H.pbe-rrkjus_psl.1.0.0.UPF
     MD5 check sum: f52b6d4d1c606e5624b1dc7b2218f220
     Pseudo is Ultrasoft, Zval =  1.0
     Generated using "atomic" code by A. Dal Corso  v.5.1
     Using radial grid of  929 points,  2 beta functions with: 
                l(1) =   0
                l(2) =   0
     Q(r) pseudized with 0 coefficients 


     atomic species   valence    mass     pseudopotential
        O              6.00    15.99940     O ( 1.00)
        Ru            16.00   101.07000     Ru( 1.00)
        H              1.00     1.00794     H ( 1.00)

      8 Sym. Ops., with inversion, found



   Cartesian axes

     site n.     atom                  positions (alat units)
         1           O   tau(   1) = (   0.0000000   0.4858677   0.9483198  )
         2           O   tau(   2) = (   0.5000000   0.4858677   0.9442726  )
         3           O   tau(   3) = (   0.0000000   0.0000000   1.0050095  )
         4           O   tau(   4) = (   0.5000000   0.0000000   1.0611188  )
         5           Ru  tau(   5) = (   0.2637543   0.0000000   1.2380637  )
         6           Ru  tau(   6) = (   0.7362457   0.0000000   1.2380637  )
         7           O   tau(   7) = (   0.2497652   0.3037201   1.2407654  )
         8           O   tau(   8) = (   0.7502348   0.3037201   1.2407654  )
         9           Ru  tau(   9) = (   0.0000000   0.4858677   1.2244140  )
        10           Ru  tau(  10) = (   0.5000000   0.4858677   1.2139410  )
        11           O   tau(  11) = (   0.2497652   0.6680152   1.2407654  )
        12           O   tau(  12) = (   0.7502348   0.6680152   1.2407654  )
        13           O   tau(  13) = (   0.0000000   0.0000000   1.4199670  )
        14           O   tau(  14) = (   0.5000000   0.0000000   1.4240869  )
        15           O   tau(  15) = (   0.0000000   0.4858677   1.5392116  )
        16           O   tau(  16) = (   0.5000000   0.4858677   1.5373541  )
        17           Ru  tau(  17) = (   0.0000000   0.0000000   1.7277432  )
        18           Ru  tau(  18) = (   0.5000000   0.0000000   1.7277432  )
        19           O   tau(  19) = (   0.2491165   0.1808565   1.7277432  )
        20           O   tau(  20) = (   0.7508835   0.1808565   1.7277432  )
        21           Ru  tau(  21) = (   0.2515136   0.4858677   1.7277432  )
        22           Ru  tau(  22) = (   0.7484864   0.4858677   1.7277432  )
        23           O   tau(  23) = (   0.2491165   0.7908799   1.7277432  )
        24           O   tau(  24) = (   0.7508835   0.7908799   1.7277432  )
        25           O   tau(  25) = (   0.0000000   0.4858677   1.9162714  )
        26           O   tau(  26) = (   0.5000000   0.4858677   1.9181288  )
        27           O   tau(  27) = (   0.0000000   0.0000000   2.0355160  )
        28           O   tau(  28) = (   0.5000000   0.0000000   2.0313960  )
        29           Ru  tau(  29) = (   0.2637543   0.0000000   2.2174193  )
        30           Ru  tau(  30) = (   0.7362457   0.0000000   2.2174193  )
        31           O   tau(  31) = (   0.2497652   0.3037201   2.2147175  )
        32           O   tau(  32) = (   0.7502348   0.3037201   2.2147175  )
        33           Ru  tau(  33) = (   0.0000000   0.4858677   2.2310689  )
        34           Ru  tau(  34) = (   0.5000000   0.4858677   2.2415419  )
        35           O   tau(  35) = (   0.2497652   0.6680152   2.2147175  )
        36           O   tau(  36) = (   0.7502348   0.6680152   2.2147175  )
        37           O   tau(  37) = (   0.0000000   0.0000000   2.4504770  )
        38           O   tau(  38) = (   0.5000000   0.0000000   2.3943676  )
        39           O   tau(  39) = (   0.0000000   0.4858677   2.5071631  )
        40           O   tau(  40) = (   0.5000000   0.4858677   2.5112104  )
        41           H   tau(  41) = (   0.0000000   0.1291196   0.9115854  )
        42           H   tau(  42) = (   0.0000000   0.1291196   2.5438941  )
        43           H   tau(  43) = (   0.0000000   0.8426158   0.9115854  )
        44           H   tau(  44) = (   0.0000000   0.8426158   2.5438941  )

     number of k points=     1  Marzari-Vanderbilt smearing, width (Ry)=  0.0300
                       cart. coord. in units 2pi/alat
        k(    1) = (   0.2500000   0.2572717   0.0000000), wk =   2.0000000

     Dense  grid:  1123933 G-vectors     FFT dimensions: (  90,  90, 300)

     Smooth grid:   284439 G-vectors     FFT dimensions: (  60,  54, 192)

     Estimated max dynamical RAM per process >     172.76 MB

     Estimated total dynamical RAM >       3.37 GB

     Check: negative core charge=   -0.000001

     Initial potential from superposition of free atoms

     starting charge     363.9933, renormalised to     364.0000

     add environment contribution to local potential
     Polarization accuracy = 2.5E-12, # of iterations =  23

     negative rho (up, down):  3.676E-05 0.000E+00
     Starting wfcs are  236 randomized atomic wfcs
     Checking if some PAW data can be deallocated... 

     total cpu time spent up to now is     1183.9 secs

     per-process dynamical memory:   144.3 Mb

     Self-consistent Calculation

     iteration #  1     ecut=    50.00 Ry     beta= 0.70
     Davidson diagonalization with overlap
     ethr =  1.00E-02,  avg # of iterations =  2.0

     total cpu time spent up to now is     1470.1 secs

     total energy              =   -3430.14608723 Ry
     estimated scf accuracy    <      10.26331353 Ry
     electrostatic embedding   =      -0.00166198 Ry
     cavitation energy         =       0.01987731 Ry
     PV energy                 =      -0.08453478 Ry
     correction to one-el term =     213.27038602 Ry

     iteration #  2     ecut=    50.00 Ry     beta= 0.70
     Davidson diagonalization with overlap
     ethr =  2.82E-03,  avg # of iterations =  2.0

     total cpu time spent up to now is     1738.2 secs

     total energy              =   -3432.37454094 Ry
     estimated scf accuracy    <       2.96280814 Ry
     electrostatic embedding   =      -0.00245129 Ry
     cavitation energy         =       0.02007387 Ry
     PV energy                 =      -0.08468908 Ry
     correction to one-el term =     213.27229784 Ry

     iteration #  3     ecut=    50.00 Ry     beta= 0.70
     Davidson diagonalization with overlap
     ethr =  8.14E-04,  avg # of iterations =  1.0

     total cpu time spent up to now is     2066.6 secs

     total energy              =   -3432.58803570 Ry
     estimated scf accuracy    <       0.70112543 Ry
     electrostatic embedding   =      -0.00291870 Ry
     cavitation energy         =       0.02006857 Ry
     PV energy                 =      -0.08512761 Ry
     correction to one-el term =     213.27366859 Ry

     iteration #  4     ecut=    50.00 Ry     beta= 0.70
     Davidson diagonalization with overlap
     ethr =  1.93E-04,  avg # of iterations =  1.0

     total cpu time spent up to now is     2355.8 secs

     total energy              =   -3432.64700109 Ry
     estimated scf accuracy    <       0.81016126 Ry
     electrostatic embedding   =      -0.00303396 Ry
     cavitation energy         =       0.02026960 Ry
     PV energy                 =      -0.08471709 Ry
     correction to one-el term =     213.27363943 Ry

     iteration #  5     ecut=    50.00 Ry     beta= 0.70
     Davidson diagonalization with overlap
     ethr =  1.93E-04,  avg # of iterations =  1.0

     total cpu time spent up to now is     2667.5 secs

     total energy              =   -3432.63659459 Ry
     estimated scf accuracy    <       0.41247862 Ry
     electrostatic embedding   =      -0.00328831 Ry
     cavitation energy         =       0.02055190 Ry
     PV energy                 =      -0.08435064 Ry
     correction to one-el term =     213.27401005 Ry

     iteration #  6     ecut=    50.00 Ry     beta= 0.70
     Davidson diagonalization with overlap
     ethr =  1.13E-04,  avg # of iterations =  1.0

     total cpu time spent up to now is     3006.4 secs

     total energy              =   -3432.62795117 Ry
     estimated scf accuracy    <       0.31934063 Ry
     electrostatic embedding   =      -0.00347787 Ry
     cavitation energy         =       0.02092920 Ry
     PV energy                 =      -0.08367509 Ry
     correction to one-el term =     213.27413149 Ry

     iteration #  7     ecut=    50.00 Ry     beta= 0.70
     Davidson diagonalization with overlap
     ethr =  8.77E-05,  avg # of iterations =  1.0

     total cpu time spent up to now is     3344.6 secs

     total energy              =   -3432.62135241 Ry
     estimated scf accuracy    <       0.14147925 Ry
     electrostatic embedding   =      -0.00351723 Ry
     cavitation energy         =       0.02124261 Ry
     PV energy                 =      -0.08298005 Ry
     correction to one-el term =     213.27392107 Ry

     iteration #  8     ecut=    50.00 Ry     beta= 0.70
     Davidson diagonalization with overlap
     ethr =  3.89E-05,  avg # of iterations = 11.0

     add environment contribution to local potential
     Polarization accuracy = 6.8E-12, # of iterations =  38

     total cpu time spent up to now is     3639.3 secs

     total energy              =   -3432.62022623 Ry
     estimated scf accuracy    <       0.04774091 Ry
     electrostatic embedding   =      -0.00336161 Ry
     cavitation energy         =       0.02157988 Ry
     PV energy                 =      -0.08198439 Ry
     correction to one-el term =     213.27309360 Ry

     iteration #  9     ecut=    50.00 Ry     beta= 0.70
     Davidson diagonalization with overlap
     ethr =  1.31E-05,  avg # of iterations =  9.0

     total cpu time spent up to now is     3977.2 secs

     total energy              =   -3432.69625173 Ry
     estimated scf accuracy    <       0.35093959 Ry
     electrostatic embedding   =      -0.06664203 Ry
     cavitation energy         =       0.02175234 Ry
     PV energy                 =      -0.08153046 Ry
     correction to one-el term =     178.86024787 Ry

     iteration # 10     ecut=    50.00 Ry     beta= 0.70
     Davidson diagonalization with overlap
     ethr =  1.31E-05,  avg # of iterations =  1.0

     total cpu time spent up to now is     4311.0 secs

     total energy              =   -3432.67916985 Ry
     estimated scf accuracy    <       0.26042874 Ry
     electrostatic embedding   =      -0.06725157 Ry
     cavitation energy         =       0.02179266 Ry
     PV energy                 =      -0.08142760 Ry
     correction to one-el term =     178.86229202 Ry

     iteration # 11     ecut=    50.00 Ry     beta= 0.70
     Davidson diagonalization with overlap
     ethr =  1.31E-05,  avg # of iterations =  2.0

     add environment contribution to local potential
     Polarization accuracy = 3.2E-12, # of iterations =  41

     total cpu time spent up to now is     4648.9 secs

     total energy              =   -3432.67504047 Ry
     estimated scf accuracy    <       0.04498411 Ry
     electrostatic embedding   =      -0.06933740 Ry
     cavitation energy         =       0.02178047 Ry
     PV energy                 =      -0.08123051 Ry
     correction to one-el term =     178.86900088 Ry

     iteration # 12     ecut=    50.00 Ry     beta= 0.70
     Davidson diagonalization with overlap
     ethr =  1.24E-05,  avg # of iterations =  2.0

     negative rho (up, down):  4.255E-06 0.000E+00

     add environment contribution to local potential
     Polarization accuracy = 6.6E-12, # of iterations =  42

     total cpu time spent up to now is     5002.5 secs

     total energy              =   -3432.68456626 Ry
     estimated scf accuracy    <       0.03443916 Ry
     electrostatic embedding   =      -0.08057794 Ry
     cavitation energy         =       0.02170141 Ry
     PV energy                 =      -0.08123475 Ry
     correction to one-el term =     179.17904142 Ry

     iteration # 13     ecut=    50.00 Ry     beta= 0.70
     Davidson diagonalization with overlap
     ethr =  9.46E-06,  avg # of iterations =  2.0

     negative rho (up, down):  1.604E-04 0.000E+00

     add environment contribution to local potential
     Polarization accuracy = 4.6E-12, # of iterations =  41

     total cpu time spent up to now is     5331.1 secs

     total energy              =   -3432.68786009 Ry
     estimated scf accuracy    <       0.00569951 Ry
     electrostatic embedding   =      -0.09113764 Ry
     cavitation energy         =       0.02163709 Ry
     PV energy                 =      -0.08114699 Ry
     correction to one-el term =     179.59982300 Ry

     iteration # 14     ecut=    50.00 Ry     beta= 0.70
     Davidson diagonalization with overlap
     ethr =  1.57E-06,  avg # of iterations = 15.0

     negative rho (up, down):  1.281E-04 0.000E+00

     add environment contribution to local potential
     Polarization accuracy = 7.3E-12, # of iterations =  41

     total cpu time spent up to now is     5702.6 secs

     total energy              =   -3432.68882231 Ry
     estimated scf accuracy    <       0.00272817 Ry
     electrostatic embedding   =      -0.09677558 Ry
     cavitation energy         =       0.02159757 Ry
     PV energy                 =      -0.08114170 Ry
     correction to one-el term =     179.84831361 Ry

     iteration # 15     ecut=    50.00 Ry     beta= 0.70
     Davidson diagonalization with overlap
     ethr =  7.49E-07,  avg # of iterations =  7.0

     negative rho (up, down):  7.909E-06 0.000E+00

     add environment contribution to local potential
     Polarization accuracy = 6.2E-12, # of iterations =  41

     total cpu time spent up to now is     6023.2 secs

     total energy              =   -3432.68975269 Ry
     estimated scf accuracy    <       0.00181665 Ry
     electrostatic embedding   =      -0.10308541 Ry
     cavitation energy         =       0.02145592 Ry
     PV energy                 =      -0.08128733 Ry
     correction to one-el term =     180.91328583 Ry

     iteration # 16     ecut=    50.00 Ry     beta= 0.70
     Davidson diagonalization with overlap
     ethr =  4.99E-07,  avg # of iterations =  6.0

     negative rho (up, down):  6.324E-07 0.000E+00

     add environment contribution to local potential
     Polarization accuracy = 3.4E-12, # of iterations =  41

     total cpu time spent up to now is     6277.7 secs

     total energy              =   -3432.68989863 Ry
     estimated scf accuracy    <       0.00150216 Ry
     electrostatic embedding   =      -0.10512505 Ry
     cavitation energy         =       0.02143155 Ry
     PV energy                 =      -0.08133957 Ry
     correction to one-el term =     181.24179194 Ry

     iteration # 17     ecut=    50.00 Ry     beta= 0.70
     Davidson diagonalization with overlap
     ethr =  4.13E-07,  avg # of iterations = 10.0

     add environment contribution to local potential
     Polarization accuracy = 7.4E-12, # of iterations =  40

     total cpu time spent up to now is     6603.9 secs

     total energy              =   -3432.68994880 Ry
     estimated scf accuracy    <       0.00093295 Ry
     electrostatic embedding   =      -0.10470143 Ry
     cavitation energy         =       0.02137861 Ry
     PV energy                 =      -0.08145845 Ry
     correction to one-el term =     181.92692544 Ry

     iteration # 18     ecut=    50.00 Ry     beta= 0.70
     Davidson diagonalization with overlap
     ethr =  2.56E-07,  avg # of iterations =  2.0

     negative rho (up, down):  5.668E-04 0.000E+00

     add environment contribution to local potential
     Polarization accuracy = 7.1E-12, # of iterations =  40

     total cpu time spent up to now is     6959.0 secs

     total energy              =   -3432.69004685 Ry
     estimated scf accuracy    <       0.00028589 Ry
     electrostatic embedding   =      -0.10265634 Ry
     cavitation energy         =       0.02138393 Ry
     PV energy                 =      -0.08146883 Ry
     correction to one-el term =     182.01898327 Ry

     iteration # 19     ecut=    50.00 Ry     beta= 0.70
     Davidson diagonalization with overlap
     ethr =  7.85E-08,  avg # of iterations =  7.0

     negative rho (up, down):  6.489E-06 0.000E+00

     add environment contribution to local potential
     Polarization accuracy = 7.2E-12, # of iterations =  40

     total cpu time spent up to now is     7298.2 secs

     total energy              =   -3432.69005759 Ry
     estimated scf accuracy    <       0.00013957 Ry
     electrostatic embedding   =      -0.10256543 Ry
     cavitation energy         =       0.02137557 Ry
     PV energy                 =      -0.08147441 Ry
     correction to one-el term =     182.24152567 Ry

     iteration # 20     ecut=    50.00 Ry     beta= 0.70
     Davidson diagonalization with overlap
     ethr =  3.83E-08,  avg # of iterations =  2.0

     negative rho (up, down):  2.090E-04 0.000E+00

     add environment contribution to local potential
     Polarization accuracy = 7.4E-12, # of iterations =  40

     total cpu time spent up to now is     7610.1 secs

     total energy              =   -3432.69009692 Ry
     estimated scf accuracy    <       0.00001663 Ry
     electrostatic embedding   =      -0.10078485 Ry
     cavitation energy         =       0.02139381 Ry
     PV energy                 =      -0.08143010 Ry
     correction to one-el term =     182.29767374 Ry

     iteration # 21     ecut=    50.00 Ry     beta= 0.70
     Davidson diagonalization with overlap
     ethr =  4.57E-09,  avg # of iterations =  6.0

     negative rho (up, down):  3.390E-05 0.000E+00

     add environment contribution to local potential
     Polarization accuracy = 8.0E-12, # of iterations =  40

     total cpu time spent up to now is     7922.7 secs

     total energy              =   -3432.69009971 Ry
     estimated scf accuracy    <       0.00001551 Ry
     electrostatic embedding   =      -0.10087138 Ry
     cavitation energy         =       0.02138528 Ry
     PV energy                 =      -0.08143639 Ry
     correction to one-el term =     182.37330777 Ry

     iteration # 22     ecut=    50.00 Ry     beta= 0.70
     Davidson diagonalization with overlap
     ethr =  4.26E-09,  avg # of iterations =  2.0

     negative rho (up, down):  4.613E-05 0.000E+00

     add environment contribution to local potential
     Polarization accuracy = 7.7E-12, # of iterations =  40

     total cpu time spent up to now is     8247.3 secs

     total energy              =   -3432.69010392 Ry
     estimated scf accuracy    <       0.00000389 Ry
     electrostatic embedding   =      -0.10052624 Ry
     cavitation energy         =       0.02138533 Ry
     PV energy                 =      -0.08142313 Ry
     correction to one-el term =     182.40059882 Ry

     iteration # 23     ecut=    50.00 Ry     beta= 0.70
     Davidson diagonalization with overlap
     ethr =  1.07E-09,  avg # of iterations =  3.0

     negative rho (up, down):  9.798E-05 0.000E+00

     add environment contribution to local potential
     Polarization accuracy = 7.7E-12, # of iterations =  39

     total cpu time spent up to now is     8551.0 secs

     total energy              =   -3432.69010799 Ry
     estimated scf accuracy    <       0.00000094 Ry
     electrostatic embedding   =      -0.10020013 Ry
     cavitation energy         =       0.02138274 Ry
     PV energy                 =      -0.08142257 Ry
     correction to one-el term =     182.43247435 Ry

     iteration # 24     ecut=    50.00 Ry     beta= 0.70
     Davidson diagonalization with overlap
     ethr =  2.57E-10,  avg # of iterations =  3.0

     negative rho (up, down):  1.379E-04 0.000E+00

     add environment contribution to local potential
     Polarization accuracy = 7.4E-12, # of iterations =  40

     total cpu time spent up to now is     8856.7 secs

     total energy              =   -3432.69010925 Ry
     estimated scf accuracy    <       0.00000045 Ry
     electrostatic embedding   =      -0.10009619 Ry
     cavitation energy         =       0.02138024 Ry
     PV energy                 =      -0.08142398 Ry
     correction to one-el term =     182.45576323 Ry

     iteration # 25     ecut=    50.00 Ry     beta= 0.70
     Davidson diagonalization with overlap
     ethr =  1.22E-10,  avg # of iterations =  4.0

     negative rho (up, down):  1.396E-04 0.000E+00

     add environment contribution to local potential
     Polarization accuracy = 7.3E-12, # of iterations =  40

     total cpu time spent up to now is     9146.3 secs

     total energy              =   -3432.69011018 Ry
     estimated scf accuracy    <       0.00000018 Ry
     electrostatic embedding   =      -0.10004726 Ry
     cavitation energy         =       0.02137866 Ry
     PV energy                 =      -0.08142661 Ry
     correction to one-el term =     182.46591918 Ry

     iteration # 26     ecut=    50.00 Ry     beta= 0.70
     Davidson diagonalization with overlap
     ethr =  5.04E-11,  avg # of iterations =  4.0

     negative rho (up, down):  1.536E-04 0.000E+00

     add environment contribution to local potential
     Polarization accuracy = 7.3E-12, # of iterations =  40

     total cpu time spent up to now is     9461.4 secs

     total energy              =   -3432.69011172 Ry
     estimated scf accuracy    <       0.00000016 Ry
     electrostatic embedding   =      -0.09995142 Ry
     cavitation energy         =       0.02137832 Ry
     PV energy                 =      -0.08142666 Ry
     correction to one-el term =     182.47499240 Ry

     iteration # 27     ecut=    50.00 Ry     beta= 0.70
     Davidson diagonalization with overlap
     ethr =  4.53E-11,  avg # of iterations =  3.0

     negative rho (up, down):  1.521E-04 0.000E+00

     add environment contribution to local potential
     Polarization accuracy = 7.3E-12, # of iterations =  40

     total cpu time spent up to now is     9774.8 secs

     total energy              =   -3432.69011300 Ry
     estimated scf accuracy    <       0.00000009 Ry
     electrostatic embedding   =      -0.09986865 Ry
     cavitation energy         =       0.02137805 Ry
     PV energy                 =      -0.08142713 Ry
     correction to one-el term =     182.48435241 Ry

     iteration # 28     ecut=    50.00 Ry     beta= 0.70
     Davidson diagonalization with overlap
     ethr =  2.59E-11,  avg # of iterations =  2.0

     negative rho (up, down):  1.486E-04 0.000E+00

     add environment contribution to local potential
     Polarization accuracy = 7.3E-12, # of iterations =  40

     total cpu time spent up to now is    10095.1 secs

     total energy              =   -3432.69011361 Ry
     estimated scf accuracy    <       0.00000006 Ry
     electrostatic embedding   =      -0.09982990 Ry
     cavitation energy         =       0.02137814 Ry
     PV energy                 =      -0.08142749 Ry
     correction to one-el term =     182.48762601 Ry

     iteration # 29     ecut=    50.00 Ry     beta= 0.70
     Davidson diagonalization with overlap
     ethr =  1.73E-11,  avg # of iterations =  2.0

     negative rho (up, down):  1.494E-04 0.000E+00

     add environment contribution to local potential
     Polarization accuracy = 6.6E-12, # of iterations =  40

     total cpu time spent up to now is    10432.6 secs

     total energy              =   -3432.69011415 Ry
     estimated scf accuracy    <       0.00000006 Ry
     electrostatic embedding   =      -0.09979866 Ry
     cavitation energy         =       0.02137828 Ry
     PV energy                 =      -0.08142723 Ry
     correction to one-el term =     182.49026674 Ry

     iteration # 30     ecut=    50.00 Ry     beta= 0.70
     Davidson diagonalization with overlap
     ethr =  1.55E-11,  avg # of iterations =  2.0

     negative rho (up, down):  1.449E-04 0.000E+00

     add environment contribution to local potential
     Polarization accuracy = 7.2E-12, # of iterations =  40

     total cpu time spent up to now is    10767.1 secs

     total energy              =   -3432.69011456 Ry
     estimated scf accuracy    <       0.00000005 Ry
     electrostatic embedding   =      -0.09978400 Ry
     cavitation energy         =       0.02137823 Ry
     PV energy                 =      -0.08142737 Ry
     correction to one-el term =     182.49185692 Ry

     iteration # 31     ecut=    50.00 Ry     beta= 0.70
     Davidson diagonalization with overlap
     ethr =  1.49E-11,  avg # of iterations =  3.0

     negative rho (up, down):  1.453E-04 0.000E+00

     add environment contribution to local potential
     Polarization accuracy = 7.2E-12, # of iterations =  40

     total cpu time spent up to now is    11020.4 secs

     total energy              =   -3432.69011636 Ry
     estimated scf accuracy    <       0.00000005 Ry
     electrostatic embedding   =      -0.09973912 Ry
     cavitation energy         =       0.02137833 Ry
     PV energy                 =      -0.08142742 Ry
     correction to one-el term =     182.49591939 Ry

     iteration # 32     ecut=    50.00 Ry     beta= 0.70
     Davidson diagonalization with overlap
     ethr =  1.38E-11,  avg # of iterations =  2.0

     negative rho (up, down):  1.378E-04 0.000E+00

     add environment contribution to local potential
     Polarization accuracy = 3.0E-12, # of iterations =  39

     total cpu time spent up to now is    11321.0 secs

     total energy              =   -3432.69011767 Ry
     estimated scf accuracy    <       0.00000004 Ry
     electrostatic embedding   =      -0.09974720 Ry
     cavitation energy         =       0.02137823 Ry
     PV energy                 =      -0.08142751 Ry
     correction to one-el term =     182.49542159 Ry

     iteration # 33     ecut=    50.00 Ry     beta= 0.70
     Davidson diagonalization with overlap
     ethr =  1.09E-11,  avg # of iterations =  7.0

     negative rho (up, down):  1.351E-04 0.000E+00

     add environment contribution to local potential
     Polarization accuracy = 7.1E-12, # of iterations =  40

     total cpu time spent up to now is    11624.2 secs

     total energy              =   -3432.69012144 Ry
     estimated scf accuracy    <       0.00000004 Ry
     electrostatic embedding   =      -0.09971071 Ry
     cavitation energy         =       0.02137832 Ry
     PV energy                 =      -0.08142759 Ry
     correction to one-el term =     182.49796324 Ry

     iteration # 34     ecut=    50.00 Ry     beta= 0.70
     Davidson diagonalization with overlap
     ethr =  1.09E-11,  avg # of iterations =  5.0

     negative rho (up, down):  1.363E-04 0.000E+00

     add environment contribution to local potential
     Polarization accuracy = 7.1E-12, # of iterations =  40

     total cpu time spent up to now is    11848.7 secs

     total energy              =   -3432.69012578 Ry
     estimated scf accuracy    <       0.00000002 Ry
     electrostatic embedding   =      -0.09979702 Ry
     cavitation energy         =       0.02137828 Ry
     PV energy                 =      -0.08142747 Ry
     correction to one-el term =     182.48915513 Ry

     iteration # 35     ecut=    50.00 Ry     beta= 0.70
     Davidson diagonalization with overlap
     ethr =  5.04E-12,  avg # of iterations =  5.0

     negative rho (up, down):  1.381E-04 0.000E+00

     add environment contribution to local potential
     Polarization accuracy = 7.0E-12, # of iterations =  40

     total cpu time spent up to now is    12126.2 secs

     total energy              =   -3432.69012908 Ry
     estimated scf accuracy    <          4.1E-09 Ry
     electrostatic embedding   =      -0.09978294 Ry
     cavitation energy         =       0.02137835 Ry
     PV energy                 =      -0.08142742 Ry
     correction to one-el term =     182.49025483 Ry

     iteration # 36     ecut=    50.00 Ry     beta= 0.70
     Davidson diagonalization with overlap
     ethr =  1.12E-12,  avg # of iterations = 16.0

     negative rho (up, down):  1.416E-04 0.000E+00

     add environment contribution to local potential
     Polarization accuracy = 6.7E-12, # of iterations =  40

     total cpu time spent up to now is    12375.6 secs

     total energy              =   -3432.69013075 Ry
     estimated scf accuracy    <          4.4E-09 Ry
     electrostatic embedding   =      -0.09978011 Ry
     cavitation energy         =       0.02137839 Ry
     PV energy                 =      -0.08142740 Ry
     correction to one-el term =     182.49079783 Ry

     iteration # 37     ecut=    50.00 Ry     beta= 0.70
     Davidson diagonalization with overlap
     ethr =  1.12E-12,  avg # of iterations =  2.0

     negative rho (up, down):  1.439E-04 0.000E+00

     add environment contribution to local potential
     Polarization accuracy = 4.5E-12, # of iterations =  39

     total cpu time spent up to now is    12639.0 secs

     total energy              =   -3432.69013170 Ry
     estimated scf accuracy    <          2.1E-09 Ry
     electrostatic embedding   =      -0.09979031 Ry
     cavitation energy         =       0.02137838 Ry
     PV energy                 =      -0.08142733 Ry
     correction to one-el term =     182.49013784 Ry

     iteration # 38     ecut=    50.00 Ry     beta= 0.70
     Davidson diagonalization with overlap
     ethr =  5.89E-13,  avg # of iterations =  2.0

     negative rho (up, down):  1.466E-04 0.000E+00

     the potential shift due to the Gaussian-smeared nuclei is    -1.3065 ev

     total cpu time spent up to now is    12924.9 secs

     End of self-consistent calculation

          k = 0.2500 0.2573 0.0000 ( 35510 PWs)   bands (ev):

   -78.0215 -78.0099 -77.9812 -77.9698 -77.1985 -77.1901 -77.1875 -77.1791
   -77.1313 -77.0727 -77.0528 -77.0479 -48.5338 -48.5223 -48.3743 -48.3629
   -48.0097 -47.9982 -47.9104 -47.8989 -47.6183 -47.6068 -47.5997 -47.5882
   -47.3895 -47.3826 -47.3784 -47.3715 -47.3584 -47.3204 -47.2728 -47.2635
   -47.2605 -47.2595 -47.1529 -47.1342 -47.1232 -47.0681 -47.0567 -47.0449
   -47.0343 -47.0337 -47.0204 -46.9603 -46.9365 -46.9002 -46.8916 -46.8755
   -25.6960 -25.6802 -23.7003 -23.4231 -23.3374 -23.1604 -23.1511 -22.8681
   -22.8399 -22.6958 -22.6366 -22.4727 -22.4591 -22.3908 -22.2879 -22.2831
   -22.2179 -22.2051 -22.1483 -22.1070 -22.0199 -21.9845 -21.8464 -21.6834
   -21.6469 -21.5053 -21.3608 -21.3081 -13.4240 -13.4084 -11.8706 -11.6496
   -11.6380 -11.4995 -11.4172 -11.1590 -11.0630 -11.0136 -10.9860 -10.9308
   -10.8308 -10.7572 -10.7406 -10.7006 -10.6725 -10.5244 -10.4926 -10.4036
   -10.3736 -10.3602 -10.3029 -10.2777 -10.0689 -10.0260  -9.9699  -9.8142
    -9.8112  -9.6174  -9.6017  -9.4583  -9.4070  -9.3327  -9.2082  -9.1314
    -9.0424  -8.9888  -8.8700  -8.8277  -8.8038  -8.6796  -8.6498  -8.5140
    -8.4572  -8.4414  -8.3245  -8.2151  -8.2100  -8.1388  -8.0448  -7.9857
    -7.9035  -7.8979  -7.8620  -7.8588  -7.7739  -7.7166  -7.7041  -7.6164
    -7.5795  -7.4325  -7.4169  -7.3319  -7.2860  -7.2373  -7.1815  -7.0035
    -6.9643  -6.8249  -6.8032  -6.7720  -6.6553  -6.5892  -6.4780  -6.4084
    -6.3529  -6.2771  -6.1680  -6.0596  -6.0290  -5.9636  -5.9387  -5.7729
    -4.9249  -4.9018  -4.8960  -4.6241  -4.6058  -4.5236  -4.5148  -4.4618
    -4.4579  -4.3754  -4.3497  -4.3237  -4.2507  -4.2379  -4.1397  -4.1262
    -4.1053  -4.0106  -3.9744  -3.8364  -3.8124  -3.7358  -3.7098  -3.5236
    -3.4552  -3.3628  -3.2325  -3.1865  -3.1373  -2.9491  -2.9367  -2.8958
    -2.8337  -2.8193  -2.6688  -2.4938  -1.9164  -1.7428  -1.7054  -1.3289
    -1.2302  -1.1683  -0.9043  -0.7645  -0.4739  -0.3333  -0.1666  -0.0322
    -0.0161   0.1906   0.2200   0.3402   0.5522   0.5601   0.6493   0.7043
     0.8144   0.9119

     the Fermi energy is    -3.7029 ev

!    total energy              =   -3432.69013205 Ry
     estimated scf accuracy    <          3.9E-10 Ry
     smearing contrib. (-TS)   =       0.04818110 Ry
     internal energy E=F+TS    =   -3432.73831315 Ry

     The total energy is F=E-TS. E is the sum of the following terms:
     one-electron contribution =  -25101.25794569 Ry
     hartree contribution      =   12535.53352447 Ry
     xc contribution           =    -445.93610536 Ry
     ewald contribution        =    9663.15739421 Ry
     one-center paw contrib.   =    -266.56620343 Ry
     electrostatic embedding   =      -0.09978641 Ry
     cavitation energy         =       0.02137836 Ry
     PV energy                 =      -0.08142734 Ry
     correction to one-el term =     182.49085805 Ry

     WARNING: you are using the parabolic pbc correction;
              the potential shift above must be added to 
              band and Fermi energies.

     convergence has been achieved in  38 iterations

     negative rho (up, down):  1.466E-04 0.000E+00

     Forces acting on atoms (cartesian axes, Ry/au):

     atom    1 type  1   force =     0.00000000    0.00000000    0.01092067
     atom    2 type  1   force =     0.00000000    0.00000000    0.00307463
     atom    3 type  1   force =     0.00000000    0.00000000   -0.04471042
     atom    4 type  1   force =     0.00000000    0.00000000    0.00240448
     atom    5 type  2   force =    -0.04320636    0.00000000   -0.00076490
     atom    6 type  2   force =     0.04320636   -0.00000000   -0.00076490
     atom    7 type  1   force =     0.00591984   -0.03091046    0.00113605
     atom    8 type  1   force =    -0.00591984   -0.03091046    0.00113605
     atom    9 type  2   force =     0.00000000    0.00000000   -0.01902490
     atom   10 type  2   force =     0.00000000    0.00000000   -0.01347429
     atom   11 type  1   force =     0.00591984    0.03091046    0.00113605
     atom   12 type  1   force =    -0.00591984    0.03091046    0.00113605
     atom   13 type  1   force =     0.00000000    0.00000000    0.00307681
     atom   14 type  1   force =     0.00000000    0.00000000    0.00582398
     atom   15 type  1   force =     0.00000000    0.00000000   -0.00011836
     atom   16 type  1   force =     0.00000000    0.00000000   -0.00174926
     atom   17 type  2   force =     0.00000000    0.00000000    0.00000000
     atom   18 type  2   force =     0.00000000    0.00000000    0.00000000
     atom   19 type  1   force =    -0.00090750    0.02376740    0.00000000
     atom   20 type  1   force =     0.00090750    0.02376740    0.00000000
     atom   21 type  2   force =     0.00107976    0.00000000    0.00000000
     atom   22 type  2   force =    -0.00107976    0.00000000    0.00000000
     atom   23 type  1   force =    -0.00090750   -0.02376740    0.00000000
     atom   24 type  1   force =     0.00090750   -0.02376740    0.00000000
     atom   25 type  1   force =     0.00000000    0.00000000    0.00011836
     atom   26 type  1   force =     0.00000000    0.00000000    0.00174926
     atom   27 type  1   force =     0.00000000    0.00000000   -0.00307681
     atom   28 type  1   force =     0.00000000    0.00000000   -0.00582398
     atom   29 type  2   force =    -0.04320636   -0.00000000    0.00076490
     atom   30 type  2   force =     0.04320636    0.00000000    0.00076490
     atom   31 type  1   force =     0.00591984   -0.03091046   -0.00113605
     atom   32 type  1   force =    -0.00591984   -0.03091046   -0.00113605
     atom   33 type  2   force =     0.00000000    0.00000000    0.01902490
     atom   34 type  2   force =     0.00000000    0.00000000    0.01347429
     atom   35 type  1   force =     0.00591984    0.03091046   -0.00113605
     atom   36 type  1   force =    -0.00591984    0.03091046   -0.00113605
     atom   37 type  1   force =     0.00000000    0.00000000    0.04471042
     atom   38 type  1   force =     0.00000000    0.00000000   -0.00240448
     atom   39 type  1   force =     0.00000000    0.00000000   -0.01092067
     atom   40 type  1   force =     0.00000000    0.00000000   -0.00307463
     atom   41 type  3   force =     0.00000000   -0.04624662    0.02138353
     atom   42 type  3   force =     0.00000000   -0.04624662   -0.02138353
     atom   43 type  3   force =    -0.00000000    0.04624662    0.02138353
     atom   44 type  3   force =     0.00000000    0.04624662   -0.02138353
     The non-local contrib.  to forces
     atom    1 type  1   force =     0.00000000    0.00000000    1.19885273
     atom    2 type  1   force =     0.00000000    0.00000000    1.26540655
     atom    3 type  1   force =     0.00000000    0.00000000   -1.39025623
     atom    4 type  1   force =     0.00000000    0.00000000    1.16947497
     atom    5 type  2   force =     0.00107619    0.00000000   -0.02386756
     atom    6 type  2   force =    -0.00107619    0.00000000   -0.02386756
     atom    7 type  1   force =     0.03351324    0.03675396   -0.12684866
     atom    8 type  1   force =    -0.03351324    0.03675396   -0.12684866
     atom    9 type  2   force =     0.00000000    0.00000000   -0.04404145
     atom   10 type  2   force =     0.00000000    0.00000000   -0.04466347
     atom   11 type  1   force =     0.03351324   -0.03675396   -0.12684866
     atom   12 type  1   force =    -0.03351324   -0.03675396   -0.12684866
     atom   13 type  1   force =     0.00000000    0.00000000    0.11947466
     atom   14 type  1   force =     0.00000000    0.00000000   -0.24217850
     atom   15 type  1   force =     0.00000000    0.00000000    0.15776010
     atom   16 type  1   force =     0.00000000    0.00000000    0.25942409
     atom   17 type  2   force =     0.00000000    0.00000000    0.00000000
     atom   18 type  2   force =     0.00000000    0.00000000    0.00000000
     atom   19 type  1   force =     0.01399256   -0.00142536    0.00000000
     atom   20 type  1   force =    -0.01399256   -0.00142536    0.00000000
     atom   21 type  2   force =    -0.00417444    0.00000000    0.00000000
     atom   22 type  2   force =     0.00417444    0.00000000    0.00000000
     atom   23 type  1   force =     0.01399256    0.00142536    0.00000000
     atom   24 type  1   force =    -0.01399256    0.00142536    0.00000000
     atom   25 type  1   force =     0.00000000    0.00000000   -0.15776010
     atom   26 type  1   force =     0.00000000    0.00000000   -0.25942409
     atom   27 type  1   force =     0.00000000    0.00000000   -0.11947466
     atom   28 type  1   force =     0.00000000    0.00000000    0.24217850
     atom   29 type  2   force =     0.00107619    0.00000000    0.02386756
     atom   30 type  2   force =    -0.00107619    0.00000000    0.02386756
     atom   31 type  1   force =     0.03351324    0.03675396    0.12684866
     atom   32 type  1   force =    -0.03351324    0.03675396    0.12684866
     atom   33 type  2   force =     0.00000000    0.00000000    0.04404145
     atom   34 type  2   force =     0.00000000    0.00000000    0.04466347
     atom   35 type  1   force =     0.03351324   -0.03675396    0.12684866
     atom   36 type  1   force =    -0.03351324   -0.03675396    0.12684866
     atom   37 type  1   force =     0.00000000    0.00000000    1.39025623
     atom   38 type  1   force =     0.00000000    0.00000000   -1.16947497
     atom   39 type  1   force =     0.00000000    0.00000000   -1.19885273
     atom   40 type  1   force =     0.00000000    0.00000000   -1.26540655
     atom   41 type  3   force =     0.00000000   -0.07844220    0.05647491
     atom   42 type  3   force =     0.00000000   -0.07844220   -0.05647491
     atom   43 type  3   force =     0.00000000    0.07844220    0.05647491
     atom   44 type  3   force =     0.00000000    0.07844220   -0.05647491
     The ionic contribution  to forces
     atom    1 type  1   force =    -0.00000000    0.00000021  -98.54828664
     atom    2 type  1   force =    -0.00000000    0.00000020  -99.86267411
     atom    3 type  1   force =    -0.00000000   -0.00000028  -87.96875239
     atom    4 type  1   force =     0.00000000   -0.00000040  -94.62883091
     atom    5 type  2   force =    -7.13952983   -0.00000294 -169.02964946
     atom    6 type  2   force =     7.13952983   -0.00000294 -169.02964946
     atom    7 type  1   force =    -0.74369129   -2.13289495  -61.22204210
     atom    8 type  1   force =     0.74369129   -2.13289495  -61.22204210
     atom    9 type  2   force =    -0.00000000    0.00000353 -167.61151908
     atom   10 type  2   force =     0.00000000    0.00000326 -170.99647606
     atom   11 type  1   force =    -0.74369129    2.13289571  -61.22203915
     atom   12 type  1   force =     0.74369129    2.13289571  -61.22203915
     atom   13 type  1   force =     0.00000000   -0.00000215  -39.51814036
     atom   14 type  1   force =     0.00000000   -0.00000216  -35.64261435
     atom   15 type  1   force =    -0.00000000    0.00001071  -26.22380008
     atom   16 type  1   force =     0.00000000    0.00001048  -27.14217003
     atom   17 type  2   force =    -0.00000000    0.00001523   -0.00042521
     atom   18 type  2   force =     0.00000000    0.00001431   -0.00046278
     atom   19 type  1   force =    -0.28168679    2.38351778   -0.00007799
     atom   20 type  1   force =     0.28168679    2.38351778   -0.00007799
     atom   21 type  2   force =    -0.41683488    0.00010632   -0.00024693
     atom   22 type  2   force =     0.41683488    0.00010632   -0.00024693
     atom   23 type  1   force =    -0.28168609   -2.38365789   -0.00007799
     atom   24 type  1   force =     0.28168609   -2.38365789   -0.00007799
     atom   25 type  1   force =     0.00000000    0.00001072   26.22360766
     atom   26 type  1   force =     0.00000000    0.00001048   27.14199118
     atom   27 type  1   force =     0.00000000   -0.00000215   39.51842498
     atom   28 type  1   force =    -0.00000000   -0.00000216   35.64293877
     atom   29 type  2   force =    -7.13940878   -0.00000294  169.02994560
     atom   30 type  2   force =     7.13940878   -0.00000294  169.02994560
     atom   31 type  1   force =    -0.74368666   -2.13291925   61.22211091
     atom   32 type  1   force =     0.74368666   -2.13291925   61.22211091
     atom   33 type  2   force =     0.00000000    0.00000353  167.61167226
     atom   34 type  2   force =     0.00000000    0.00000326  170.99662621
     atom   35 type  1   force =    -0.74368666    2.13292002   61.22210796
     atom   36 type  1   force =     0.74368666    2.13292002   61.22210796
     atom   37 type  1   force =    -0.00000000   -0.00000028   87.96874024
     atom   38 type  1   force =     0.00000000   -0.00000040   94.62891719
     atom   39 type  1   force =     0.00000000    0.00000021   98.54835042
     atom   40 type  1   force =    -0.00000000    0.00000020   99.86273332
     atom   41 type  3   force =    -0.00000000    2.19236111  -16.58159372
     atom   42 type  3   force =    -0.00000000    2.19255857   16.58163774
     atom   43 type  3   force =     0.00000000   -2.19236115  -16.58159368
     atom   44 type  3   force =    -0.00000000   -2.19255861   16.58163771
     The local contribution  to forces
     atom    1 type  1   force =    -0.00000000    0.00000000   97.32690971
     atom    2 type  1   force =     0.00000000    0.00000000   98.49458870
     atom    3 type  1   force =     0.00000000    0.00000000   89.48529291
     atom    4 type  1   force =     0.00000000    0.00000000   93.41265005
     atom    5 type  2   force =     7.17679194    0.00000000  169.08645503
     atom    6 type  2   force =    -7.17679194   -0.00000000  169.08645503
     atom    7 type  1   force =     0.74035685    2.08097149   61.34135155
     atom    8 type  1   force =    -0.74035685    2.08097149   61.34135155
     atom    9 type  2   force =    -0.00000000    0.00000000  167.63824586
     atom   10 type  2   force =     0.00000000    0.00000000  170.92246727
     atom   11 type  1   force =     0.74035685   -2.08097149   61.34135155
     atom   12 type  1   force =    -0.74035685   -2.08097149   61.34135155
     atom   13 type  1   force =    -0.00000000    0.00000000   39.41657433
     atom   14 type  1   force =     0.00000000    0.00000000   35.88300151
     atom   15 type  1   force =     0.00000000    0.00000000   26.06778350
     atom   16 type  1   force =     0.00000000    0.00000000   26.87758398
     atom   17 type  2   force =    -0.00000000    0.00000000   -0.00589162
     atom   18 type  2   force =     0.00000000    0.00000000   -0.00580719
     atom   19 type  1   force =     0.26941202   -2.35712432   -0.00243308
     atom   20 type  1   force =    -0.26941202   -2.35712432   -0.00243308
     atom   21 type  2   force =     0.42809810    0.00000000   -0.00598248
     atom   22 type  2   force =    -0.42809810   -0.00000000   -0.00598248
     atom   23 type  1   force =     0.26941132    2.35675160   -0.00243308
     atom   24 type  1   force =    -0.26941132    2.35675160   -0.00243308
     atom   25 type  1   force =    -0.00000000    0.00000000  -26.06955909
     atom   26 type  1   force =     0.00000000    0.00000000  -26.87937274
     atom   27 type  1   force =    -0.00000000    0.00000000  -39.41838241
     atom   28 type  1   force =     0.00000000   -0.00000000  -35.88472705
     atom   29 type  2   force =     7.17682601   -0.00000000 -169.09245019
     atom   30 type  2   force =    -7.17682601   -0.00000000 -169.09245019
     atom   31 type  1   force =     0.74036597    2.08100539  -61.34376890
     atom   32 type  1   force =    -0.74036597    2.08100539  -61.34376890
     atom   33 type  2   force =    -0.00000000    0.00000000 -167.64399442
     atom   34 type  2   force =     0.00000000    0.00000000 -170.92823562
     atom   35 type  1   force =     0.74036597   -2.08100539  -61.34376890
     atom   36 type  1   force =    -0.74036597   -2.08100539  -61.34376890
     atom   37 type  1   force =    -0.00000000   -0.00000000  -89.48896174
     atom   38 type  1   force =     0.00000000    0.00000000  -93.41642320
     atom   39 type  1   force =    -0.00000000    0.00000000  -97.32833707
     atom   40 type  1   force =     0.00000000    0.00000000  -98.49596931
     atom   41 type  3   force =     0.00000000   -2.15137553   16.59951118
     atom   42 type  3   force =     0.00000000   -2.15137553  -16.59951118
     atom   43 type  3   force =    -0.00000000    2.15137553   16.59951118
     atom   44 type  3   force =    -0.00000000    2.15137553  -16.59951118
     The core correction contribution to forces
     atom    1 type  1   force =     0.00000000   -0.00000000   -0.01065968
     atom    2 type  1   force =    -0.00000000    0.00000000   -0.01073780
     atom    3 type  1   force =     0.00000000    0.00000000    0.01369536
     atom    4 type  1   force =     0.00000000   -0.00000000   -0.01149248
     atom    5 type  2   force =     0.00000000    0.00000000    0.00000000
     atom    6 type  2   force =     0.00000000    0.00000000    0.00000000
     atom    7 type  1   force =    -0.00037707   -0.00035997    0.00130003
     atom    8 type  1   force =     0.00037707   -0.00035997    0.00130003
     atom    9 type  2   force =     0.00000000    0.00000000    0.00000000
     atom   10 type  2   force =     0.00000000    0.00000000    0.00000000
     atom   11 type  1   force =    -0.00037707    0.00035997    0.00130003
     atom   12 type  1   force =     0.00037707    0.00035997    0.00130003
     atom   13 type  1   force =    -0.00000000    0.00000000   -0.00138030
     atom   14 type  1   force =     0.00000000   -0.00000000    0.00250706
     atom   15 type  1   force =     0.00000000   -0.00000000   -0.00191949
     atom   16 type  1   force =    -0.00000000    0.00000000   -0.00282628
     atom   17 type  2   force =     0.00000000    0.00000000    0.00000000
     atom   18 type  2   force =     0.00000000    0.00000000    0.00000000
     atom   19 type  1   force =    -0.00021044   -0.00019059   -0.00000190
     atom   20 type  1   force =     0.00021044   -0.00019059   -0.00000190
     atom   21 type  2   force =     0.00000000    0.00000000    0.00000000
     atom   22 type  2   force =     0.00000000    0.00000000    0.00000000
     atom   23 type  1   force =    -0.00021044    0.00018995   -0.00000190
     atom   24 type  1   force =     0.00021044    0.00018995   -0.00000190
     atom   25 type  1   force =     0.00000000   -0.00000000    0.00191744
     atom   26 type  1   force =    -0.00000000   -0.00000000    0.00282421
     atom   27 type  1   force =     0.00000000    0.00000000    0.00137805
     atom   28 type  1   force =     0.00000000    0.00000000   -0.00250941
     atom   29 type  2   force =     0.00000000    0.00000000    0.00000000
     atom   30 type  2   force =     0.00000000    0.00000000    0.00000000
     atom   31 type  1   force =    -0.00037699   -0.00035987   -0.00130139
     atom   32 type  1   force =     0.00037699   -0.00035987   -0.00130139
     atom   33 type  2   force =     0.00000000    0.00000000    0.00000000
     atom   34 type  2   force =     0.00000000    0.00000000    0.00000000
     atom   35 type  1   force =    -0.00037699    0.00035987   -0.00130139
     atom   36 type  1   force =     0.00037699    0.00035987   -0.00130139
     atom   37 type  1   force =     0.00000000    0.00000000   -0.01369906
     atom   38 type  1   force =     0.00000000   -0.00000000    0.01148890
     atom   39 type  1   force =    -0.00000000    0.00000000    0.01065765
     atom   40 type  1   force =     0.00000000   -0.00000000    0.01073593
     atom   41 type  3   force =     0.00000000    0.00000000    0.00000000
     atom   42 type  3   force =     0.00000000    0.00000000    0.00000000
     atom   43 type  3   force =     0.00000000    0.00000000    0.00000000
     atom   44 type  3   force =     0.00000000    0.00000000    0.00000000
     The Hubbard contrib.    to forces
     atom    1 type  1   force =     0.00000000    0.00000000    0.00000000
     atom    2 type  1   force =     0.00000000    0.00000000    0.00000000
     atom    3 type  1   force =     0.00000000    0.00000000    0.00000000
     atom    4 type  1   force =     0.00000000    0.00000000    0.00000000
     atom    5 type  2   force =     0.00000000    0.00000000    0.00000000
     atom    6 type  2   force =     0.00000000    0.00000000    0.00000000
     atom    7 type  1   force =     0.00000000    0.00000000    0.00000000
     atom    8 type  1   force =     0.00000000    0.00000000    0.00000000
     atom    9 type  2   force =     0.00000000    0.00000000    0.00000000
     atom   10 type  2   force =     0.00000000    0.00000000    0.00000000
     atom   11 type  1   force =     0.00000000    0.00000000    0.00000000
     atom   12 type  1   force =     0.00000000    0.00000000    0.00000000
     atom   13 type  1   force =     0.00000000    0.00000000    0.00000000
     atom   14 type  1   force =     0.00000000    0.00000000    0.00000000
     atom   15 type  1   force =     0.00000000    0.00000000    0.00000000
     atom   16 type  1   force =     0.00000000    0.00000000    0.00000000
     atom   17 type  2   force =     0.00000000    0.00000000    0.00000000
     atom   18 type  2   force =     0.00000000    0.00000000    0.00000000
     atom   19 type  1   force =     0.00000000    0.00000000    0.00000000
     atom   20 type  1   force =     0.00000000    0.00000000    0.00000000
     atom   21 type  2   force =     0.00000000    0.00000000    0.00000000
     atom   22 type  2   force =     0.00000000    0.00000000    0.00000000
     atom   23 type  1   force =     0.00000000    0.00000000    0.00000000
     atom   24 type  1   force =     0.00000000    0.00000000    0.00000000
     atom   25 type  1   force =     0.00000000    0.00000000    0.00000000
     atom   26 type  1   force =     0.00000000    0.00000000    0.00000000
     atom   27 type  1   force =     0.00000000    0.00000000    0.00000000
     atom   28 type  1   force =     0.00000000    0.00000000    0.00000000
     atom   29 type  2   force =     0.00000000    0.00000000    0.00000000
     atom   30 type  2   force =     0.00000000    0.00000000    0.00000000
     atom   31 type  1   force =     0.00000000    0.00000000    0.00000000
     atom   32 type  1   force =     0.00000000    0.00000000    0.00000000
     atom   33 type  2   force =     0.00000000    0.00000000    0.00000000
     atom   34 type  2   force =     0.00000000    0.00000000    0.00000000
     atom   35 type  1   force =     0.00000000    0.00000000    0.00000000
     atom   36 type  1   force =     0.00000000    0.00000000    0.00000000
     atom   37 type  1   force =     0.00000000    0.00000000    0.00000000
     atom   38 type  1   force =     0.00000000    0.00000000    0.00000000
     atom   39 type  1   force =     0.00000000    0.00000000    0.00000000
     atom   40 type  1   force =     0.00000000    0.00000000    0.00000000
     atom   41 type  3   force =     0.00000000    0.00000000    0.00000000
     atom   42 type  3   force =     0.00000000    0.00000000    0.00000000
     atom   43 type  3   force =     0.00000000    0.00000000    0.00000000
     atom   44 type  3   force =     0.00000000    0.00000000    0.00000000
     The SCF correction term to forces
     atom    1 type  1   force =    -0.00000000   -0.00000001    0.00000108
     atom    2 type  1   force =     0.00000000   -0.00000001   -0.00000309
     atom    3 type  1   force =    -0.00000000    0.00000002   -0.00001441
     atom    4 type  1   force =     0.00000000    0.00000002    0.00000157
     atom    5 type  2   force =     0.00000299    0.00000009    0.00000887
     atom    6 type  2   force =    -0.00000299    0.00000009    0.00000887
     atom    7 type  1   force =    -0.00000313   -0.00000611    0.00000751
     atom    8 type  1   force =     0.00000313   -0.00000611    0.00000751
     atom    9 type  2   force =    -0.00000000   -0.00000009    0.00001820
     atom   10 type  2   force =     0.00000000   -0.00000008    0.00003725
     atom   11 type  1   force =    -0.00000313    0.00000608    0.00000750
     atom   12 type  1   force =     0.00000313    0.00000608    0.00000750
     atom   13 type  1   force =    -0.00000000    0.00000004    0.00000175
     atom   14 type  1   force =     0.00000000    0.00000004    0.00001328
     atom   15 type  1   force =    -0.00000000   -0.00000005    0.00000748
     atom   16 type  1   force =     0.00000000   -0.00000005    0.00001168
     atom   17 type  2   force =    -0.00000000    0.00000015    0.00000661
     atom   18 type  2   force =     0.00000000    0.00000015    0.00000669
     atom   19 type  1   force =     0.00001052   -0.00000146    0.00000240
     atom   20 type  1   force =    -0.00001052   -0.00000146    0.00000240
     atom   21 type  2   force =     0.00000674   -0.00000014    0.00000635
     atom   22 type  2   force =    -0.00000674   -0.00000014    0.00000635
     atom   23 type  1   force =     0.00001052    0.00000150    0.00000240
     atom   24 type  1   force =    -0.00001052    0.00000150    0.00000240
     atom   25 type  1   force =    -0.00000000   -0.00000005   -0.00000417
     atom   26 type  1   force =    -0.00000000   -0.00000005   -0.00000837
     atom   27 type  1   force =     0.00000000    0.00000004   -0.00000033
     atom   28 type  1   force =    -0.00000000    0.00000004   -0.00001170
     atom   29 type  2   force =     0.00000317    0.00000009   -0.00001363
     atom   30 type  2   force =    -0.00000317    0.00000009   -0.00001363
     atom   31 type  1   force =    -0.00000306   -0.00000631   -0.00000916
     atom   32 type  1   force =     0.00000306   -0.00000631   -0.00000916
     atom   33 type  2   force =    -0.00000000   -0.00000009   -0.00002356
     atom   34 type  2   force =     0.00000000   -0.00000008   -0.00004288
     atom   35 type  1   force =    -0.00000306    0.00000628   -0.00000915
     atom   36 type  1   force =     0.00000306    0.00000628   -0.00000915
     atom   37 type  1   force =    -0.00000000    0.00000002    0.00001187
     atom   38 type  1   force =     0.00000000    0.00000002   -0.00000427
     atom   39 type  1   force =    -0.00000000   -0.00000001   -0.00000313
     atom   40 type  1   force =     0.00000000   -0.00000001    0.00000104
     atom   41 type  3   force =    -0.00000000   -0.00000135   -0.00000062
     atom   42 type  3   force =     0.00000000   -0.00000134    0.00000037
     atom   43 type  3   force =    -0.00000000    0.00000135   -0.00000062
     atom   44 type  3   force =    -0.00000000    0.00000134    0.00000037

     Total force =     0.183030     Total SCF correction =     0.000086

     BFGS Geometry Optimization
     Energy error            =      0.0E+00 Ry
     Gradient error          =      4.6E-02 Ry/Bohr

     number of scf cycles    =   1
     number of bfgs steps    =   0

     energy             new  =   -3432.6901320459 Ry

     new trust radius        =       0.0509510056 bohr
     new conv_thr            =       0.0000000010 Ry


ATOMIC_POSITIONS (crystal)
O             0.0000000000        0.5000000000        0.2747005335
O             0.5000000000        0.5000000000        0.2733416913
O             0.0000000000        0.0000000000        0.2897761709
O             0.5000000000        0.0000000000        0.3071404171
Ru            0.2601847218        0.0000000000        0.3582716838
Ru            0.7398152782       -0.0000000000        0.3582716838
O             0.2502542505        0.3099263628        0.3590990200
O             0.7497457495        0.3099263628        0.3590990200
Ru            0.0000000000        0.5000000000        0.3538849621
Ru            0.5000000000        0.5000000000        0.3509868376
O             0.2502542505        0.6900736372        0.3590990200
O             0.7497457495        0.6900736372        0.3590990200
O             0.0000000000        0.0000000000        0.4110055207
O             0.5000000000        0.0000000000        0.4122635084
O             0.0000000000        0.5000000000        0.4454379731
O             0.5000000000        0.5000000000        0.4448614489
Ru            0.0000000000        0.0000000000        0.5000010000
Ru            0.5000000000        0.0000000000        0.5000010000
O             0.2490414928        0.1881377260        0.5000010000
O             0.7509585072        0.1881377260        0.5000010000
Ru            0.2516027774        0.5000000000        0.5000010000
Ru            0.7483972226        0.5000000000        0.5000010000
O             0.2490414928        0.8118632740        0.5000010000
O             0.7509585072        0.8118632740        0.5000010000
O             0.0000000000        0.5000000000        0.5545630269
O             0.5000000000        0.5000000000        0.5551395511
O             0.0000000000        0.0000000000        0.5889954793
O             0.5000000000        0.0000000000        0.5877374916
Ru            0.2601847218       -0.0000000000        0.6417293162
Ru            0.7398152782        0.0000000000        0.6417293162
O             0.2502542505        0.3099263628        0.6409019800
O             0.7497457495        0.3099263628        0.6409019800
Ru            0.0000000000        0.5000000000        0.6461160379
Ru            0.5000000000        0.5000000000        0.6490141624
O             0.2502542505        0.6900736372        0.6409019800
O             0.7497457495        0.6900736372        0.6409019800
O             0.0000000000        0.0000000000        0.7102258291
O             0.5000000000        0.0000000000        0.6928615829
O             0.0000000000        0.5000000000        0.7253004665
O             0.5000000000        0.5000000000        0.7266593087
H             0.0000000000        0.1289433917        0.2643199067
H             0.0000000000        0.1289433917        0.7356800933
H            -0.0000000000        0.8710566083        0.2643199067
H             0.0000000000        0.8710566083        0.7356800933



     Writing config-only to output data dir /storage/home/mgm6007/ixd4/Maria/Strain0_Files/RuO2-110-0-24/RuO2-110-0-24.save/
     NEW-OLD atomic charge density approx. for the potential

     Check: negative core charge=   -0.000001

     negative rho (up, down):  1.459E-04 0.000E+00

     add environment contribution to local potential
     Polarization accuracy = 4.6E-12, # of iterations =  41

     total cpu time spent up to now is    13209.8 secs

     per-process dynamical memory:   210.7 Mb

     Self-consistent Calculation

     iteration #  1     ecut=    50.00 Ry     beta= 0.70
     Davidson diagonalization with overlap
     ethr =  1.00E-06,  avg # of iterations =  7.0

     negative rho (up, down):  1.872E-05 0.000E+00

     add environment contribution to local potential
     Polarization accuracy = 1.0E-11, # of iterations =  40

     total cpu time spent up to now is    13470.8 secs

     total energy              =   -3432.70457562 Ry
     estimated scf accuracy    <       0.01977009 Ry
     electrostatic embedding   =      -0.10492123 Ry
     cavitation energy         =       0.02150153 Ry
     PV energy                 =      -0.08130763 Ry
     correction to one-el term =     181.85804251 Ry

     iteration #  2     ecut=    50.00 Ry     beta= 0.70
     Davidson diagonalization with overlap
     ethr =  5.43E-06,  avg # of iterations =  3.0

     negative rho (up, down):  2.370E-05 0.000E+00

     add environment contribution to local potential
     Polarization accuracy = 9.9E-12, # of iterations =  40

     total cpu time spent up to now is    13752.6 secs

     total energy              =   -3432.70484179 Ry
     estimated scf accuracy    <       0.04226999 Ry
     electrostatic embedding   =      -0.10392543 Ry
     cavitation energy         =       0.02141894 Ry
     PV energy                 =      -0.08139016 Ry
     correction to one-el term =     181.77777667 Ry

     iteration #  3     ecut=    50.00 Ry     beta= 0.70
     Davidson diagonalization with overlap
     ethr =  5.43E-06,  avg # of iterations =  1.0

     negative rho (up, down):  1.155E-05 0.000E+00

     add environment contribution to local potential
     Polarization accuracy = 9.1E-12, # of iterations =  40

     total cpu time spent up to now is    14042.4 secs

     total energy              =   -3432.70699685 Ry
     estimated scf accuracy    <       0.00361008 Ry
     electrostatic embedding   =      -0.10393065 Ry
     cavitation energy         =       0.02141660 Ry
     PV energy                 =      -0.08137143 Ry
     correction to one-el term =     181.82131257 Ry

     iteration #  4     ecut=    50.00 Ry     beta= 0.70
     Davidson diagonalization with overlap
     ethr =  9.92E-07,  avg # of iterations =  2.0

     negative rho (up, down):  8.816E-06 0.000E+00

     add environment contribution to local potential
     Polarization accuracy = 9.3E-12, # of iterations =  40

     total cpu time spent up to now is    14325.7 secs

     total energy              =   -3432.70712949 Ry
     estimated scf accuracy    <       0.00237402 Ry
     electrostatic embedding   =      -0.10348101 Ry
     cavitation energy         =       0.02140638 Ry
     PV energy                 =      -0.08136753 Ry
     correction to one-el term =     181.80093641 Ry

     iteration #  5     ecut=    50.00 Ry     beta= 0.70
     Davidson diagonalization with overlap
     ethr =  6.52E-07,  avg # of iterations =  1.0

     negative rho (up, down):  8.486E-06 0.000E+00

     add environment contribution to local potential
     Polarization accuracy = 5.7E-12, # of iterations =  41

     total cpu time spent up to now is    14622.5 secs

     total energy              =   -3432.70718745 Ry
     estimated scf accuracy    <       0.00032013 Ry
     electrostatic embedding   =      -0.10322019 Ry
     cavitation energy         =       0.02140265 Ry
     PV energy                 =      -0.08136680 Ry
     correction to one-el term =     181.79074936 Ry

     iteration #  6     ecut=    50.00 Ry     beta= 0.70
     Davidson diagonalization with overlap
     ethr =  8.79E-08,  avg # of iterations =  2.0

     negative rho (up, down):  9.640E-06 0.000E+00

     add environment contribution to local potential
     Polarization accuracy = 1.4E-12, # of iterations =  41

     total cpu time spent up to now is    14959.1 secs

     total energy              =   -3432.70722735 Ry
     estimated scf accuracy    <       0.00015593 Ry
     electrostatic embedding   =      -0.10283002 Ry
     cavitation energy         =       0.02140080 Ry
     PV energy                 =      -0.08136044 Ry
     correction to one-el term =     181.80929079 Ry

     iteration #  7     ecut=    50.00 Ry     beta= 0.70
     Davidson diagonalization with overlap
     ethr =  4.28E-08,  avg # of iterations =  2.0

     negative rho (up, down):  1.220E-05 0.000E+00

     add environment contribution to local potential
     Polarization accuracy = 1.4E-12, # of iterations =  41

     total cpu time spent up to now is    15276.0 secs

     total energy              =   -3432.70724130 Ry
     estimated scf accuracy    <       0.00003718 Ry
     electrostatic embedding   =      -0.10258311 Ry
     cavitation energy         =       0.02139981 Ry
     PV energy                 =      -0.08135725 Ry
     correction to one-el term =     181.82775830 Ry

     iteration #  8     ecut=    50.00 Ry     beta= 0.70
     Davidson diagonalization with overlap
     ethr =  1.02E-08,  avg # of iterations =  2.0

     negative rho (up, down):  1.890E-05 0.000E+00

     add environment contribution to local potential
     Polarization accuracy = 1.4E-12, # of iterations =  41

     total cpu time spent up to now is    15608.2 secs

     total energy              =   -3432.70724827 Ry
     estimated scf accuracy    <       0.00000989 Ry
     electrostatic embedding   =      -0.10235516 Ry
     cavitation energy         =       0.02139928 Ry
     PV energy                 =      -0.08135466 Ry
     correction to one-el term =     181.85119623 Ry

     iteration #  9     ecut=    50.00 Ry     beta= 0.70
     Davidson diagonalization with overlap
     ethr =  2.72E-09,  avg # of iterations =  3.0

     negative rho (up, down):  3.331E-05 0.000E+00

     add environment contribution to local potential
     Polarization accuracy = 1.4E-12, # of iterations =  41

     total cpu time spent up to now is    15940.5 secs

     total energy              =   -3432.70725344 Ry
     estimated scf accuracy    <       0.00000453 Ry
     electrostatic embedding   =      -0.10204561 Ry
     cavitation energy         =       0.02139812 Ry
     PV energy                 =      -0.08135252 Ry
     correction to one-el term =     181.88600635 Ry

     iteration # 10     ecut=    50.00 Ry     beta= 0.70
     Davidson diagonalization with overlap
     ethr =  1.24E-09,  avg # of iterations =  3.0

     negative rho (up, down):  5.107E-05 0.000E+00

     add environment contribution to local potential
     Polarization accuracy = 1.4E-12, # of iterations =  41

     total cpu time spent up to now is    16246.6 secs

     total energy              =   -3432.70725673 Ry
     estimated scf accuracy    <       0.00000260 Ry
     electrostatic embedding   =      -0.10170242 Ry
     cavitation energy         =       0.02139661 Ry
     PV energy                 =      -0.08135084 Ry
     correction to one-el term =     181.92710621 Ry

     iteration # 11     ecut=    50.00 Ry     beta= 0.70
     Davidson diagonalization with overlap
     ethr =  7.13E-10,  avg # of iterations =  3.0

     negative rho (up, down):  7.200E-05 0.000E+00

     add environment contribution to local potential
     Polarization accuracy = 1.4E-12, # of iterations =  41

     total cpu time spent up to now is    16566.4 secs

     total energy              =   -3432.70725733 Ry
     estimated scf accuracy    <       0.00000093 Ry
     electrostatic embedding   =      -0.10148763 Ry
     cavitation energy         =       0.02139526 Ry
     PV energy                 =      -0.08135075 Ry
     correction to one-el term =     181.95364525 Ry

     iteration # 12     ecut=    50.00 Ry     beta= 0.70
     Davidson diagonalization with overlap
     ethr =  2.56E-10,  avg # of iterations =  3.0

     negative rho (up, down):  9.548E-05 0.000E+00

     add environment contribution to local potential
     Polarization accuracy = 1.4E-12, # of iterations =  41

     total cpu time spent up to now is    16873.9 secs

     total energy              =   -3432.70725732 Ry
     estimated scf accuracy    <       0.00000046 Ry
     electrostatic embedding   =      -0.10132640 Ry
     cavitation energy         =       0.02139427 Ry
     PV energy                 =      -0.08135094 Ry
     correction to one-el term =     181.97372841 Ry

     iteration # 13     ecut=    50.00 Ry     beta= 0.70
     Davidson diagonalization with overlap
     ethr =  1.28E-10,  avg # of iterations =  3.0

     negative rho (up, down):  1.335E-04 0.000E+00

     add environment contribution to local potential
     Polarization accuracy = 1.4E-12, # of iterations =  41

     total cpu time spent up to now is    17224.5 secs

     total energy              =   -3432.70725716 Ry
     estimated scf accuracy    <       0.00000033 Ry
     electrostatic embedding   =      -0.10120014 Ry
     cavitation energy         =       0.02139354 Ry
     PV energy                 =      -0.08135117 Ry
     correction to one-el term =     181.99012994 Ry

     iteration # 14     ecut=    50.00 Ry     beta= 0.70
     Davidson diagonalization with overlap
     ethr =  8.99E-11,  avg # of iterations =  3.0

     negative rho (up, down):  1.455E-04 0.000E+00

     add environment contribution to local potential
     Polarization accuracy = 1.4E-12, # of iterations =  41

     total cpu time spent up to now is    17569.8 secs

     total energy              =   -3432.70725726 Ry
     estimated scf accuracy    <       0.00000005 Ry
     electrostatic embedding   =      -0.10103334 Ry
     cavitation energy         =       0.02139269 Ry
     PV energy                 =      -0.08135147 Ry
     correction to one-el term =     182.01053933 Ry

     iteration # 15     ecut=    50.00 Ry     beta= 0.70
     Davidson diagonalization with overlap
     ethr =  1.35E-11,  avg # of iterations =  4.0

     negative rho (up, down):  1.492E-04 0.000E+00

     add environment contribution to local potential
     Polarization accuracy = 2.7E-12, # of iterations =  41

     total cpu time spent up to now is    17902.9 secs

     total energy              =   -3432.70725743 Ry
     estimated scf accuracy    <       0.00000004 Ry
     electrostatic embedding   =      -0.10097055 Ry
     cavitation energy         =       0.02139258 Ry
     PV energy                 =      -0.08135129 Ry
     correction to one-el term =     182.01755689 Ry

     iteration # 16     ecut=    50.00 Ry     beta= 0.70
     Davidson diagonalization with overlap
     ethr =  1.16E-11,  avg # of iterations =  2.0

     negative rho (up, down):  1.477E-04 0.000E+00

     add environment contribution to local potential
     Polarization accuracy = 1.4E-12, # of iterations =  41

     total cpu time spent up to now is    18221.3 secs

     total energy              =   -3432.70725745 Ry
     estimated scf accuracy    <          8.9E-09 Ry
     electrostatic embedding   =      -0.10094569 Ry
     cavitation energy         =       0.02139267 Ry
     PV energy                 =      -0.08135133 Ry
     correction to one-el term =     182.02002834 Ry

     iteration # 17     ecut=    50.00 Ry     beta= 0.70
     Davidson diagonalization with overlap
     ethr =  2.43E-12,  avg # of iterations =  2.0

     negative rho (up, down):  1.486E-04 0.000E+00

     add environment contribution to local potential
     Polarization accuracy = 1.4E-12, # of iterations =  41

     total cpu time spent up to now is    18440.1 secs

     total energy              =   -3432.70725745 Ry
     estimated scf accuracy    <          3.5E-09 Ry
     electrostatic embedding   =      -0.10094162 Ry
     cavitation energy         =       0.02139271 Ry
     PV energy                 =      -0.08135134 Ry
     correction to one-el term =     182.02030066 Ry

     iteration # 18     ecut=    50.00 Ry     beta= 0.70
     Davidson diagonalization with overlap
     ethr =  9.58E-13,  avg # of iterations =  3.0

     negative rho (up, down):  1.486E-04 0.000E+00

     add environment contribution to local potential
     Polarization accuracy = 1.4E-12, # of iterations =  41

     total cpu time spent up to now is    18730.0 secs

     total energy              =   -3432.70725750 Ry
     estimated scf accuracy    <          2.3E-09 Ry
     electrostatic embedding   =      -0.10092417 Ry
     cavitation energy         =       0.02139263 Ry
     PV energy                 =      -0.08135140 Ry
     correction to one-el term =     182.02230779 Ry

     iteration # 19     ecut=    50.00 Ry     beta= 0.70
     Davidson diagonalization with overlap
     ethr =  6.22E-13,  avg # of iterations =  3.0

     negative rho (up, down):  1.486E-04 0.000E+00

[...]
     atom   40 type  1   force =    -0.00000000    0.00000018   99.50804499
     atom   41 type  3   force =    -0.00000000    2.39089654  -16.73979233
     atom   42 type  3   force =    -0.00000000    2.39111932   16.73985040
     atom   43 type  3   force =     0.00000000   -2.39089658  -16.73979229
     atom   44 type  3   force =    -0.00000000   -2.39111935   16.73985037
     The local contribution  to forces
     atom    1 type  1   force =    -0.00000000    0.00000000   97.21594808
     atom    2 type  1   force =     0.00000000    0.00000000   98.14688547
     atom    3 type  1   force =    -0.00000000   -0.00000000   89.12635326
     atom    4 type  1   force =     0.00000000   -0.00000000   92.41899875
     atom    5 type  2   force =     6.06881861   -0.00000000  167.59257577
     atom    6 type  2   force =    -6.06881861    0.00000000  167.59257577
     atom    7 type  1   force =     0.63245167    1.33065924   61.33249038
     atom    8 type  1   force =    -0.63245167    1.33065924   61.33249038
     atom    9 type  2   force =    -0.00000000    0.00000000  166.23682448
     atom   10 type  2   force =     0.00000000    0.00000000  171.23066733
     atom   11 type  1   force =     0.63245167   -1.33065924   61.33249038
     atom   12 type  1   force =    -0.63245167   -1.33065924   61.33249038
     atom   13 type  1   force =     0.00000000   -0.00000000   38.63526503
     atom   14 type  1   force =     0.00000000   -0.00000000   35.95036193
     atom   15 type  1   force =    -0.00000000   -0.00000000   25.98489400
     atom   16 type  1   force =     0.00000000    0.00000000   27.27372521
     atom   17 type  2   force =    -0.00000000    0.00000000   -0.00585024
     atom   18 type  2   force =     0.00000000    0.00000000   -0.00579189
     atom   19 type  1   force =     0.26960156   -1.83275512   -0.00242978
     atom   20 type  1   force =    -0.26960156   -1.83275512   -0.00242978
     atom   21 type  2   force =     0.31630696   -0.00000000   -0.00599144
     atom   22 type  2   force =    -0.31630696   -0.00000000   -0.00599144
     atom   23 type  1   force =     0.26959993    1.83238622   -0.00242978
     atom   24 type  1   force =    -0.26959993    1.83238622   -0.00242978
     atom   25 type  1   force =     0.00000000    0.00000000  -25.98668150
     atom   26 type  1   force =     0.00000000    0.00000000  -27.27549351
     atom   27 type  1   force =     0.00000000    0.00000000  -38.63705329
     atom   28 type  1   force =     0.00000000    0.00000000  -35.95208308
     atom   29 type  2   force =     6.06886038   -0.00000000 -167.59858310
     atom   30 type  2   force =    -6.06886038    0.00000000 -167.59858310
     atom   31 type  1   force =     0.63246054    1.33069882  -61.33490659
     atom   32 type  1   force =    -0.63246054    1.33069882  -61.33490659
     atom   33 type  2   force =    -0.00000000    0.00000000 -166.24256256
     atom   34 type  2   force =     0.00000000    0.00000000 -171.23640774
     atom   35 type  1   force =     0.63246054   -1.33069882  -61.33490659
     atom   36 type  1   force =    -0.63246054   -1.33069882  -61.33490659
     atom   37 type  1   force =    -0.00000000    0.00000000  -89.13001130
     atom   38 type  1   force =    -0.00000000    0.00000000  -92.42281881
     atom   39 type  1   force =    -0.00000000    0.00000000  -97.21737334
     atom   40 type  1   force =     0.00000000    0.00000000  -98.14826087
     atom   41 type  3   force =     0.00000000   -2.29586371   16.73103498
     atom   42 type  3   force =    -0.00000000   -2.29586371  -16.73103498
     atom   43 type  3   force =     0.00000000    2.29586371   16.73103498
     atom   44 type  3   force =    -0.00000000    2.29586371  -16.73103498
     The core correction contribution to forces
     atom    1 type  1   force =     0.00000000    0.00000000   -0.01062093
     atom    2 type  1   force =    -0.00000000   -0.00000000   -0.01054812
     atom    3 type  1   force =    -0.00000000    0.00000000    0.01298232
     atom    4 type  1   force =    -0.00000000   -0.00000000   -0.01113705
     atom    5 type  2   force =     0.00000000    0.00000000    0.00000000
     atom    6 type  2   force =     0.00000000    0.00000000    0.00000000
     atom    7 type  1   force =    -0.00009775   -0.00072820    0.00111500
     atom    8 type  1   force =     0.00009775   -0.00072820    0.00111500
     atom    9 type  2   force =     0.00000000    0.00000000    0.00000000
     atom   10 type  2   force =     0.00000000    0.00000000    0.00000000
     atom   11 type  1   force =    -0.00009775    0.00072820    0.00111500
     atom   12 type  1   force =     0.00009775    0.00072820    0.00111500
     atom   13 type  1   force =    -0.00000000    0.00000000   -0.00070021
     atom   14 type  1   force =     0.00000000   -0.00000000    0.00240141
     atom   15 type  1   force =    -0.00000000    0.00000000   -0.00192589
     atom   16 type  1   force =     0.00000000    0.00000000   -0.00339980
     atom   17 type  2   force =     0.00000000    0.00000000    0.00000000
     atom   18 type  2   force =     0.00000000    0.00000000    0.00000000
     atom   19 type  1   force =    -0.00034690    0.00017262   -0.00000194
     atom   20 type  1   force =     0.00034690    0.00017262   -0.00000194
     atom   21 type  2   force =     0.00000000    0.00000000    0.00000000
     atom   22 type  2   force =     0.00000000    0.00000000    0.00000000
     atom   23 type  1   force =    -0.00034691   -0.00017324   -0.00000194
     atom   24 type  1   force =     0.00034691   -0.00017324   -0.00000194
     atom   25 type  1   force =     0.00000000   -0.00000000    0.00192375
     atom   26 type  1   force =     0.00000000   -0.00000000    0.00339775
     atom   27 type  1   force =    -0.00000000   -0.00000000    0.00069805
     atom   28 type  1   force =     0.00000000   -0.00000000   -0.00240372
     atom   29 type  2   force =     0.00000000    0.00000000    0.00000000
     atom   30 type  2   force =     0.00000000    0.00000000    0.00000000
     atom   31 type  1   force =    -0.00009769   -0.00072809   -0.00111639
     atom   32 type  1   force =     0.00009769   -0.00072809   -0.00111639
     atom   33 type  2   force =     0.00000000    0.00000000    0.00000000
     atom   34 type  2   force =     0.00000000    0.00000000    0.00000000
     atom   35 type  1   force =    -0.00009769    0.00072809   -0.00111639
     atom   36 type  1   force =     0.00009769    0.00072809   -0.00111639
     atom   37 type  1   force =     0.00000000    0.00000000   -0.01298610
     atom   38 type  1   force =     0.00000000   -0.00000000    0.01113326
     atom   39 type  1   force =    -0.00000000   -0.00000000    0.01061884
     atom   40 type  1   force =     0.00000000    0.00000000    0.01054626
     atom   41 type  3   force =     0.00000000    0.00000000    0.00000000
     atom   42 type  3   force =     0.00000000    0.00000000    0.00000000
     atom   43 type  3   force =     0.00000000    0.00000000    0.00000000
     atom   44 type  3   force =     0.00000000    0.00000000    0.00000000
     The Hubbard contrib.    to forces
     atom    1 type  1   force =     0.00000000    0.00000000    0.00000000
     atom    2 type  1   force =     0.00000000    0.00000000    0.00000000
     atom    3 type  1   force =     0.00000000    0.00000000    0.00000000
     atom    4 type  1   force =     0.00000000    0.00000000    0.00000000
     atom    5 type  2   force =     0.00000000    0.00000000    0.00000000
     atom    6 type  2   force =     0.00000000    0.00000000    0.00000000
     atom    7 type  1   force =     0.00000000    0.00000000    0.00000000
     atom    8 type  1   force =     0.00000000    0.00000000    0.00000000
     atom    9 type  2   force =     0.00000000    0.00000000    0.00000000
     atom   10 type  2   force =     0.00000000    0.00000000    0.00000000
     atom   11 type  1   force =     0.00000000    0.00000000    0.00000000
     atom   12 type  1   force =     0.00000000    0.00000000    0.00000000
     atom   13 type  1   force =     0.00000000    0.00000000    0.00000000
     atom   14 type  1   force =     0.00000000    0.00000000    0.00000000
     atom   15 type  1   force =     0.00000000    0.00000000    0.00000000
     atom   16 type  1   force =     0.00000000    0.00000000    0.00000000
     atom   17 type  2   force =     0.00000000    0.00000000    0.00000000
     atom   18 type  2   force =     0.00000000    0.00000000    0.00000000
     atom   19 type  1   force =     0.00000000    0.00000000    0.00000000
     atom   20 type  1   force =     0.00000000    0.00000000    0.00000000
     atom   21 type  2   force =     0.00000000    0.00000000    0.00000000
     atom   22 type  2   force =     0.00000000    0.00000000    0.00000000
     atom   23 type  1   force =     0.00000000    0.00000000    0.00000000
     atom   24 type  1   force =     0.00000000    0.00000000    0.00000000
     atom   25 type  1   force =     0.00000000    0.00000000    0.00000000
     atom   26 type  1   force =     0.00000000    0.00000000    0.00000000
     atom   27 type  1   force =     0.00000000    0.00000000    0.00000000
     atom   28 type  1   force =     0.00000000    0.00000000    0.00000000
     atom   29 type  2   force =     0.00000000    0.00000000    0.00000000
     atom   30 type  2   force =     0.00000000    0.00000000    0.00000000
     atom   31 type  1   force =     0.00000000    0.00000000    0.00000000
     atom   32 type  1   force =     0.00000000    0.00000000    0.00000000
     atom   33 type  2   force =     0.00000000    0.00000000    0.00000000
     atom   34 type  2   force =     0.00000000    0.00000000    0.00000000
     atom   35 type  1   force =     0.00000000    0.00000000    0.00000000
     atom   36 type  1   force =     0.00000000    0.00000000    0.00000000
     atom   37 type  1   force =     0.00000000    0.00000000    0.00000000
     atom   38 type  1   force =     0.00000000    0.00000000    0.00000000
     atom   39 type  1   force =     0.00000000    0.00000000    0.00000000
     atom   40 type  1   force =     0.00000000    0.00000000    0.00000000
     atom   41 type  3   force =     0.00000000    0.00000000    0.00000000
     atom   42 type  3   force =     0.00000000    0.00000000    0.00000000
     atom   43 type  3   force =     0.00000000    0.00000000    0.00000000
     atom   44 type  3   force =     0.00000000    0.00000000    0.00000000
     The SCF correction term to forces
     atom    1 type  1   force =    -0.00000000   -0.00000000   -0.00000191
     atom    2 type  1   force =    -0.00000000    0.00000000   -0.00000171
     atom    3 type  1   force =    -0.00000000   -0.00000000   -0.00000152
     atom    4 type  1   force =     0.00000000   -0.00000000   -0.00000067
     atom    5 type  2   force =     0.00000103   -0.00000000   -0.00000123
     atom    6 type  2   force =    -0.00000103   -0.00000000   -0.00000123
     atom    7 type  1   force =     0.00000056   -0.00000072   -0.00000028
     atom    8 type  1   force =    -0.00000056   -0.00000072   -0.00000028
     atom    9 type  2   force =    -0.00000000    0.00000000   -0.00000127
     atom   10 type  2   force =     0.00000000    0.00000000   -0.00000171
     atom   11 type  1   force =     0.00000056    0.00000072   -0.00000028
     atom   12 type  1   force =    -0.00000056    0.00000072   -0.00000028
     atom   13 type  1   force =    -0.00000000   -0.00000000   -0.00000164
     atom   14 type  1   force =     0.00000000   -0.00000000   -0.00000093
     atom   15 type  1   force =     0.00000000    0.00000000   -0.00000089
     atom   16 type  1   force =     0.00000000    0.00000000   -0.00000129
     atom   17 type  2   force =    -0.00000000   -0.00000000    0.00000006
     atom   18 type  2   force =    -0.00000000   -0.00000000    0.00000006
     atom   19 type  1   force =     0.00000089   -0.00000039    0.00000002
     atom   20 type  1   force =    -0.00000089   -0.00000039    0.00000002
     atom   21 type  2   force =     0.00000112    0.00000000    0.00000006
     atom   22 type  2   force =    -0.00000112    0.00000000    0.00000006
     atom   23 type  1   force =     0.00000089    0.00000039    0.00000002
     atom   24 type  1   force =    -0.00000089    0.00000039    0.00000002
     atom   25 type  1   force =     0.00000000    0.00000000    0.00000094
     atom   26 type  1   force =    -0.00000000    0.00000000    0.00000134
     atom   27 type  1   force =    -0.00000000   -0.00000000    0.00000167
     atom   28 type  1   force =     0.00000000   -0.00000000    0.00000096
     atom   29 type  2   force =     0.00000102   -0.00000000    0.00000126
     atom   30 type  2   force =    -0.00000102   -0.00000000    0.00000126
     atom   31 type  1   force =     0.00000055   -0.00000072    0.00000029
     atom   32 type  1   force =    -0.00000055   -0.00000072    0.00000029
     atom   33 type  2   force =    -0.00000000    0.00000000    0.00000128
     atom   34 type  2   force =     0.00000000    0.00000000    0.00000173
     atom   35 type  1   force =     0.00000055    0.00000072    0.00000029
     atom   36 type  1   force =    -0.00000055    0.00000072    0.00000029
     atom   37 type  1   force =    -0.00000000    0.00000000    0.00000151
     atom   38 type  1   force =     0.00000000   -0.00000000    0.00000066
     atom   39 type  1   force =     0.00000000    0.00000000    0.00000189
     atom   40 type  1   force =     0.00000000    0.00000000    0.00000169
     atom   41 type  3   force =    -0.00000000   -0.00000005   -0.00000024
     atom   42 type  3   force =     0.00000000   -0.00000004    0.00000023
     atom   43 type  3   force =    -0.00000000    0.00000005   -0.00000024
     atom   44 type  3   force =    -0.00000000    0.00000004    0.00000023

     Total force =     0.000331     Total SCF correction =     0.000008
     Energy error            =      5.6E-07 Ry
     Gradient error          =      7.9E-05 Ry/Bohr

     bfgs converged in  21 scf cycles and  20 bfgs steps
     (criteria: energy <  1.0E-04 Ry, force <  1.0E-04 Ry/Bohr)

     End of BFGS Geometry Optimization

     Final energy             =   -3432.7121348166 Ry

     File /storage/home/mgm6007/ixd4/Maria/Strain0_Files/RuO2-110-0-24/RuO2-110-0-24.bfgs deleted, as requested
Begin final coordinates

ATOMIC_POSITIONS (crystal)
O             0.0000000000        0.5000000000        0.2740887260
O             0.5000000000        0.5000000000        0.2716922299
O             0.0000000000        0.0000000000        0.2894849908
O             0.5000000000        0.0000000000        0.3076652684
Ru            0.2594939029        0.0000000000        0.3581077225
Ru            0.7405060971       -0.0000000000        0.3581077225
O             0.2500807198        0.3085538163        0.3578244035
O             0.7499192802        0.3085538163        0.3578244035
Ru            0.0000000000        0.5000000000        0.3533767592
Ru            0.5000000000        0.5000000000        0.3496485590
O             0.2500807198        0.6914461837        0.3578244035
O             0.7499192802        0.6914461837        0.3578244035
O             0.0000000000        0.0000000000        0.4115712418
O             0.5000000000        0.0000000000        0.4124022344
O             0.0000000000        0.5000000000        0.4456005625
O             0.5000000000        0.5000000000        0.4426372532
Ru            0.0000000000        0.0000000000        0.5000010000
Ru            0.5000000000        0.0000000000        0.5000010000
O             0.2492173058        0.1899836002        0.5000010000
O             0.7507826942        0.1899836002        0.5000010000
Ru            0.2543488182        0.5000000000        0.5000010000
Ru            0.7456511818        0.5000000000        0.5000010000
O             0.2492173058        0.8100173998        0.5000010000
O             0.7507826942        0.8100173998        0.5000010000
O             0.0000000000        0.5000000000        0.5544004375
O             0.5000000000        0.5000000000        0.5573637468
O             0.0000000000        0.0000000000        0.5884297582
O             0.5000000000        0.0000000000        0.5875987656
Ru            0.2594939029       -0.0000000000        0.6418932775
Ru            0.7405060971        0.0000000000        0.6418932775
O             0.2500807198        0.3085538163        0.6421765965
O             0.7499192802        0.3085538163        0.6421765965
Ru            0.0000000000        0.5000000000        0.6466242408
Ru            0.5000000000        0.5000000000        0.6503524410
O             0.2500807198        0.6914461837        0.6421765965
O             0.7499192802        0.6914461837        0.6421765965
O             0.0000000000        0.0000000000        0.7105170092
O             0.5000000000        0.0000000000        0.6923367316
O             0.0000000000        0.5000000000        0.7259122740
O             0.5000000000        0.5000000000        0.7283087701
H             0.0000000000        0.1258741011        0.2623693831
H            -0.0000000000        0.1258741011        0.7376306169
H            -0.0000000000        0.8741258989        0.2623693831
H             0.0000000000        0.8741258989        0.7376306169
End final coordinates



     Writing all to output data dir /storage/home/mgm6007/ixd4/Maria/Strain0_Files/RuO2-110-0-24/RuO2-110-0-24.save/
 
     init_run     :    504.85s CPU   1183.56s WALL (       1 calls)
     electrons    :  37938.10s CPU  88297.63s WALL (      21 calls)
     update_pot   :     34.65s CPU     34.66s WALL (      20 calls)
     forces       :     33.01s CPU     33.21s WALL (      21 calls)

     Called by init_run:
     wfcinit      :      0.49s CPU      0.51s WALL (       1 calls)
     potinit      :    370.87s CPU    849.98s WALL (       1 calls)
     hinit0       :    133.04s CPU    332.56s WALL (       1 calls)

     Called by electrons:
     c_bands      :    542.06s CPU    542.70s WALL (     409 calls)
     sum_band     :    114.40s CPU    114.56s WALL (     409 calls)
     v_of_rho     :     47.14s CPU     47.27s WALL (     414 calls)
     newd         :     28.37s CPU     28.41s WALL (     414 calls)
     PAW_pot      :     49.85s CPU     49.88s WALL (     434 calls)
     mix_rho      :    297.49s CPU    297.66s WALL (     409 calls)

     Called by c_bands:
     init_us_2    :      5.14s CPU      5.16s WALL (     839 calls)
     init_us_2:cp :      5.13s CPU      5.16s WALL (     839 calls)
     cegterg      :    522.82s CPU    523.37s WALL (     409 calls)

     Called by *egterg:
     cdiaghg      :     65.08s CPU     65.13s WALL (    1389 calls)
     h_psi        :    269.73s CPU    270.06s WALL (    1426 calls)
     s_psi        :     39.55s CPU     39.58s WALL (    1426 calls)
     g_psi        :      1.30s CPU      1.31s WALL (    1016 calls)

     Called by h_psi:
     h_psi:calbec :     39.38s CPU     39.44s WALL (    1426 calls)
     vloc_psi     :    187.08s CPU    187.33s WALL (    1426 calls)
     add_vuspsi   :     39.97s CPU     39.99s WALL (    1426 calls)

     General routines
     calbec       :     61.24s CPU     61.31s WALL (    1939 calls)
     fft          :   7235.33s CPU   7236.63s WALL (    5607 calls)
     ffts         :    106.04s CPU    106.03s WALL (  165577 calls)
     fftw         :    164.87s CPU    164.94s WALL (  478934 calls)
     interpolate  :   7199.72s CPU   7201.03s WALL (     414 calls)
 
     Parallel routines
 
     Environ routines
 
     PWSCF        :     11h13m CPU   1d 2h 2m WALL

 
   This run was terminated on:  13:42:53  20Jul2023            

=------------------------------------------------------------------------------=
   JOB DONE.
=------------------------------------------------------------------------------=
