
     Program PWSCF v.7.2 starts on 26Jul2023 at 11:20:48 
        Git branch: heads/qe-7.2
        Last git commit: b4c5e8deeb7d1863e7553a87b45f8d22c21926a5
        Last git commit date: Mon Mar 27 16:12:09 2023 +0000
        Last git commit subject: Merge branch 'merge_fix_hubbard' into 'develop'

     This program is part of the open-source Quantum ESPRESSO suite
     for quantum simulation of materials; please cite
         "P. Giannozzi et al., J. Phys.:Condens. Matter 21 395502 (2009);
         "P. Giannozzi et al., J. Phys.:Condens. Matter 29 465901 (2017);
         "P. Giannozzi et al., J. Chem. Phys. 152 154105 (2020);
          URL http://www.quantum-espresso.org", 
     in publications or presentations arising from this work. More details at
     http://www.quantum-espresso.org/quote

     Parallel version (MPI), running on    20 processors

     MPI processes distributed on     1 nodes
     108418 MiB available memory on the printing compute node when the environment starts
 
     Reading input from RuO2-110-0-0125.in

     Current dimensions of program PWSCF are:
     Max number of different atomic species (ntypx) = 10
     Max number of k-points (npk) =  40000
     Max angular momentum in pseudopotentials (lmaxx) =  4
 
     Reading input from environ.in:
     * Environ restarting
     * setting up water environment
     * using electronic solvent mode
     * setting boundary derivatives method to SCCS default
     
     file O.pbe-n-kjpaw_psl.0.1.UPF: wavefunction(s)  2P renormalized
     Message from routine setup:
     using ibrav=0 with symmetry is DISCOURAGED, use correct ibrav instead
 
     R & G space division:  proc/nbgrp/npool/nimage =      20
     Subspace diagonalization in iterative solution of the eigenvalue problem:
     one sub-group per band group will be used
     scalapack distributed-memory algorithm (size of sub-group:  2*  2 procs)

 
     Parallelization info
     --------------------
     sticks:   dense  smooth     PW     G-vecs:    dense   smooth      PW
     Min         276     110     29                54982    13912    1877
     Max         277     111     30                54993    13923    1888
     Sum        5537    2217    585              1099789   278381   37601
 
     Using Slab Decomposition
 


     bravais-lattice index     =            0
     lattice parameter (alat)  =      12.3824  a.u.
     unit-cell volume          =    5825.9133 (a.u.)^3
     number of atoms/cell      =           48
     number of atomic types    =            3
     number of electrons       =       368.00
     number of Kohn-Sham states=          221
     kinetic-energy cutoff     =      50.0000  Ry
     charge density cutoff     =     500.0000  Ry
     scf convergence threshold =      1.0E-09
     mixing beta               =       0.7000
     number of iterations used =            8  local-TF  mixing
     energy convergence thresh.=      1.0E-04
     force convergence thresh. =      1.0E-04
     Exchange-correlation= PBE
                           (   1   4   3   4   0   0   0)
     nstep                     =          200


     ================================================================================
 
                                  Environ Setup Summary

     ================================================================================
 
     Please cite

          O. Andreussi, I. Dabo and N. Marzari, J. Chem. Phys. 136, 064102 (2012)

     in publications or presentations arising from this work.

     ================================================================================
 
     Parameters
     ==========

     compensation onset threshold      =               0.1000E+00
     static permittivity               =                    78.30
     surface tension in input (dyn/cm) =                    47.90
     surface tension in internal units =               0.6153E-04
     external pressure in input (GPa)  =                    -0.36
     external pressure in inter. units =              -0.2447E-04

     Solvent Boundary
     ================

     solvent mode                      =               electronic
     derivatives method                =                    chain
     numerical core for derivatives    =                      fft
     switching function adopted        =                     SCCS
     density limit for vacuum region   =               0.5000E-02
     density limit for bulk solvent    =               0.1000E-03

     Electrostatic Setup
     ===================

     electrostatic problem to solve    =              generalized
     numerical solver adopted          =                       cg
     type of auxiliary density adopted =                     none
     numerical core for poisson        =                      fft
     type of pbc corrections           =                parabolic
     numerical core for corrections    =                      1da

     ================================================================================
 

     celldm(1)=  12.382447  celldm(2)=   0.000000  celldm(3)=   0.000000
     celldm(4)=   0.000000  celldm(5)=   0.000000  celldm(6)=   0.000000

     crystal axes: (cart. coord. in units of alat)
               a(1) = (   1.000000   0.000000   0.000000 )  
               a(2) = (   0.000000   0.908473   0.000000 )  
               a(3) = (   0.000000   0.000000   3.377790 )  

     reciprocal axes: (cart. coord. in units 2 pi/alat)
               b(1) = (  1.000000  0.000000  0.000000 )  
               b(2) = (  0.000000  1.100748  0.000000 )  
               b(3) = (  0.000000  0.000000  0.296052 )  


     PseudoPot. # 1 for O  read from file:
     /gpfs/group/ixd4/default/Simon/pseudopotentials/materialscloud/SSSP_1.3.0_PBE_efficiency/O.pbe-n-kjpaw_psl.0.1.UPF
     MD5 check sum: 0234752ac141de4415c5fc33072bef88
     Pseudo is Projector augmented-wave + core cor, Zval =  6.0
     Generated using "atomic" code by A. Dal Corso  v.5.0.99 svn rev. 10869
     Shape of augmentation charge: BESSEL
     Using radial grid of 1095 points,  4 beta functions with: 
                l(1) =   0
                l(2) =   0
                l(3) =   1
                l(4) =   1
     Q(r) pseudized with 0 coefficients 


     PseudoPot. # 2 for Ru read from file:
     /gpfs/group/ixd4/default/Simon/pseudopotentials/materialscloud/SSSP_1.3.0_PBE_efficiency/Ru_ONCV_PBE-1.0.oncvpsp.upf
     MD5 check sum: be037bb81c227cfb9b1461a9f099f4bd
     Pseudo is Norm-conserving, Zval = 16.0
     Generated using ONCVPSP code by D. R. Hamann
     Using radial grid of 1458 points,  6 beta functions with: 
                l(1) =   0
                l(2) =   0
                l(3) =   1
                l(4) =   1
                l(5) =   2
                l(6) =   2

     PseudoPot. # 3 for H  read from file:
     /gpfs/group/ixd4/default/Simon/pseudopotentials/materialscloud/SSSP_1.3.0_PBE_efficiency/H.pbe-rrkjus_psl.1.0.0.UPF
     MD5 check sum: f52b6d4d1c606e5624b1dc7b2218f220
     Pseudo is Ultrasoft, Zval =  1.0
     Generated using "atomic" code by A. Dal Corso  v.5.1
     Using radial grid of  929 points,  2 beta functions with: 
                l(1) =   0
                l(2) =   0
     Q(r) pseudized with 0 coefficients 


     atomic species   valence    mass     pseudopotential
        O              6.00    15.99940     O ( 1.00)
        Ru            16.00   101.07000     Ru( 1.00)
        H              1.00     1.00794     H ( 1.00)

      4 Sym. Ops. (no inversion) found ( 2 have fractional translation)



   Cartesian axes

     site n.     atom                  positions (alat units)
         1           O   tau(   1) = (   0.0000000   0.4542364   0.8809581  )
         2           O   tau(   2) = (   0.5000000   0.4542364   0.8809581  )
         3           O   tau(   3) = (   0.0000000   0.0000000   0.9936311  )
         4           O   tau(   4) = (   0.5000000   0.0000000   0.9936311  )
         5           Ru  tau(   5) = (   0.2500000   0.0000000   1.1878270  )
         6           Ru  tau(   6) = (   0.7500000   0.0000000   1.1878270  )
         7           O   tau(   7) = (   0.2500000   0.2781880   1.1878270  )
         8           O   tau(   8) = (   0.7500000   0.2781880   1.1878270  )
         9           Ru  tau(   9) = (   0.0000000   0.4542364   1.1878270  )
        10           Ru  tau(  10) = (   0.5000000   0.4542364   1.1878270  )
        11           O   tau(  11) = (   0.2500000   0.6302848   1.1878270  )
        12           O   tau(  12) = (   0.7500000   0.6302848   1.1878270  )
        13           O   tau(  13) = (   0.0000000   0.0000000   1.3820263  )
        14           O   tau(  14) = (   0.5000000   0.0000000   1.3820263  )
        15           O   tau(  15) = (   0.0000000   0.4542364   1.4946992  )
        16           O   tau(  16) = (   0.5000000   0.4542364   1.4946992  )
        17           Ru  tau(  17) = (   0.0000000   0.0000000   1.6888985  )
        18           Ru  tau(  18) = (   0.5000000   0.0000000   1.6888985  )
        19           O   tau(  19) = (   0.2500000   0.1760484   1.6888985  )
        20           O   tau(  20) = (   0.7500000   0.1760484   1.6888985  )
        21           Ru  tau(  21) = (   0.2500000   0.4542364   1.6888985  )
        22           Ru  tau(  22) = (   0.7500000   0.4542364   1.6888985  )
        23           O   tau(  23) = (   0.2500000   0.7324253   1.6888985  )
        24           O   tau(  24) = (   0.7500000   0.7324253   1.6888985  )
        25           O   tau(  25) = (   0.0000000   0.4542364   1.8830945  )
        26           O   tau(  26) = (   0.5000000   0.4542364   1.8830945  )
        27           O   tau(  27) = (   0.0000000   0.0000000   1.9957674  )
        28           O   tau(  28) = (   0.5000000   0.0000000   1.9957674  )
        29           Ru  tau(  29) = (   0.2500000   0.0000000   2.1899667  )
        30           Ru  tau(  30) = (   0.7500000   0.0000000   2.1899667  )
        31           O   tau(  31) = (   0.2500000   0.2781880   2.1899667  )
        32           O   tau(  32) = (   0.7500000   0.2781880   2.1899667  )
        33           Ru  tau(  33) = (   0.0000000   0.4542364   2.1899667  )
        34           Ru  tau(  34) = (   0.5000000   0.4542364   2.1899667  )
        35           O   tau(  35) = (   0.2500000   0.6302848   2.1899667  )
        36           O   tau(  36) = (   0.7500000   0.6302848   2.1899667  )
        37           O   tau(  37) = (   0.0000000   0.0000000   2.3841660  )
        38           O   tau(  38) = (   0.5000000   0.0000000   2.3841660  )
        39           O   tau(  39) = (   0.0000000   0.4542364   2.4968356  )
        40           O   tau(  40) = (   0.5000000   0.4542364   2.4968356  )
        41           H   tau(  41) = (   0.1176350   0.4542364   0.7664983  )
        42           H   tau(  42) = (   0.1176350   0.4542364   2.6112920  )
        43           H   tau(  43) = (   0.6176350   0.4542364   0.7664983  )
        44           H   tau(  44) = (   0.6176350   0.4542364   2.6112920  )
        45           H   tau(  45) = (   0.0000000   0.1037621   0.8791679  )
        46           H   tau(  46) = (   0.0000000   0.1037621   2.4986224  )
        47           H   tau(  47) = (   0.5000000   0.8047107   0.8791679  )
        48           H   tau(  48) = (   0.5000000   0.8047107   2.4986224  )

     number of k points=     1  Marzari-Vanderbilt smearing, width (Ry)=  0.0300
                       cart. coord. in units 2pi/alat
        k(    1) = (   0.2500000   0.2751871   0.0000000), wk =   2.0000000

     Dense  grid:  1099789 G-vectors     FFT dimensions: (  90,  81, 300)

     Smooth grid:   278381 G-vectors     FFT dimensions: (  60,  54, 192)

     Estimated max dynamical RAM per process >     168.80 MB

     Estimated total dynamical RAM >       3.30 GB

     Check: negative core charge=   -0.000001

     Initial potential from superposition of free atoms

     starting charge     367.9933, renormalised to     368.0000

     add environment contribution to local potential
     Polarization accuracy = 7.6E-12, # of iterations =  21

     negative rho (up, down):  1.621E-05 0.000E+00
     Starting wfcs are  240 randomized atomic wfcs
     Checking if some PAW data can be deallocated... 

     total cpu time spent up to now is     1154.8 secs

     per-process dynamical memory:   138.7 Mb

     Self-consistent Calculation

     iteration #  1     ecut=    50.00 Ry     beta= 0.70
     Davidson diagonalization with overlap
     ethr =  1.00E-02,  avg # of iterations =  3.0

     negative rho (up, down):  1.174E-08 0.000E+00

     total cpu time spent up to now is     1506.0 secs

     total energy              =   -3435.18972069 Ry
     estimated scf accuracy    <       9.19579415 Ry
     electrostatic embedding   =      -0.00207257 Ry
     cavitation energy         =       0.02031344 Ry
     PV energy                 =      -0.08981903 Ry
     correction to one-el term =     223.50264077 Ry

     iteration #  2     ecut=    50.00 Ry     beta= 0.70
     Davidson diagonalization with overlap
     ethr =  2.50E-03,  avg # of iterations =  2.0

     total cpu time spent up to now is     1840.4 secs

     total energy              =   -3437.22705020 Ry
     estimated scf accuracy    <       2.84001889 Ry
     electrostatic embedding   =      -0.00337781 Ry
     cavitation energy         =       0.02002575 Ry
     PV energy                 =      -0.09126039 Ry
     correction to one-el term =     223.50705014 Ry

     iteration #  3     ecut=    50.00 Ry     beta= 0.70
     Davidson diagonalization with overlap
     ethr =  7.72E-04,  avg # of iterations =  2.0

     total cpu time spent up to now is     2184.2 secs

     total energy              =   -3437.44669294 Ry
     estimated scf accuracy    <       0.31508722 Ry
     electrostatic embedding   =      -0.00385082 Ry
     cavitation energy         =       0.01995415 Ry
     PV energy                 =      -0.09148324 Ry
     correction to one-el term =     223.50841530 Ry

     iteration #  4     ecut=    50.00 Ry     beta= 0.70
     Davidson diagonalization with overlap
     ethr =  8.56E-05,  avg # of iterations =  5.0

     total cpu time spent up to now is     2517.8 secs

     total energy              =   -3437.46146792 Ry
     estimated scf accuracy    <       0.59712870 Ry
     electrostatic embedding   =      -0.00409580 Ry
     cavitation energy         =       0.02008947 Ry
     PV energy                 =      -0.09094184 Ry
     correction to one-el term =     223.50873129 Ry

     iteration #  5     ecut=    50.00 Ry     beta= 0.70
     Davidson diagonalization with overlap
     ethr =  8.56E-05,  avg # of iterations =  1.0

     total cpu time spent up to now is     2862.5 secs

     total energy              =   -3437.45145225 Ry
     estimated scf accuracy    <       0.20156024 Ry
     electrostatic embedding   =      -0.00420419 Ry
     cavitation energy         =       0.02028693 Ry
     PV energy                 =      -0.09029747 Ry
     correction to one-el term =     223.50868562 Ry

     iteration #  6     ecut=    50.00 Ry     beta= 0.70
     Davidson diagonalization with overlap
     ethr =  5.48E-05,  avg # of iterations =  2.0

     total cpu time spent up to now is     3200.2 secs

     total energy              =   -3437.44259506 Ry
     estimated scf accuracy    <       0.22291857 Ry
     electrostatic embedding   =      -0.00421052 Ry
     cavitation energy         =       0.02075225 Ry
     PV energy                 =      -0.08884023 Ry
     correction to one-el term =     223.50807715 Ry

     iteration #  7     ecut=    50.00 Ry     beta= 0.70
     Davidson diagonalization with overlap
     ethr =  5.48E-05,  avg # of iterations =  3.0

     total cpu time spent up to now is     3521.6 secs

     total energy              =   -3437.42987378 Ry
     estimated scf accuracy    <       0.12082419 Ry
     electrostatic embedding   =      -0.00390004 Ry
     cavitation energy         =       0.02137601 Ry
     PV energy                 =      -0.08677886 Ry
     correction to one-el term =     223.50645308 Ry

     iteration #  8     ecut=    50.00 Ry     beta= 0.70
     Davidson diagonalization with overlap
     ethr =  3.28E-05,  avg # of iterations =  9.0

     negative rho (up, down):  1.915E-04 0.000E+00

     add environment contribution to local potential
     Polarization accuracy = 3.4E-12, # of iterations =  48

     total cpu time spent up to now is     3852.7 secs

     total energy              =   -3437.42792448 Ry
     estimated scf accuracy    <       0.03870776 Ry
     electrostatic embedding   =      -0.00309382 Ry
     cavitation energy         =       0.02197700 Ry
     PV energy                 =      -0.08450985 Ry
     correction to one-el term =     223.50324867 Ry

     iteration #  9     ecut=    50.00 Ry     beta= 0.70
     Davidson diagonalization with overlap
     ethr =  1.05E-05,  avg # of iterations =  7.0

     negative rho (up, down):  3.129E-03 0.000E+00

     add environment contribution to local potential
     Polarization accuracy = 9.1E-12, # of iterations =  47

     total cpu time spent up to now is     4203.0 secs

     total energy              =   -3437.46165263 Ry
     estimated scf accuracy    <       0.02697830 Ry
     electrostatic embedding   =      -0.04312745 Ry
     cavitation energy         =       0.02179849 Ry
     PV energy                 =      -0.08432737 Ry
     correction to one-el term =     182.90932999 Ry

     iteration # 10     ecut=    50.00 Ry     beta= 0.70
     Davidson diagonalization with overlap
     ethr =  7.33E-06,  avg # of iterations =  3.0

     negative rho (up, down):  1.350E-02 0.000E+00

     add environment contribution to local potential
     Polarization accuracy = 3.4E-12, # of iterations =  48

     total cpu time spent up to now is     4561.5 secs

     total energy              =   -3437.46097791 Ry
     estimated scf accuracy    <       0.01244695 Ry
     electrostatic embedding   =      -0.04368109 Ry
     cavitation energy         =       0.02158617 Ry
     PV energy                 =      -0.08423613 Ry
     correction to one-el term =     183.28165082 Ry

     iteration # 11     ecut=    50.00 Ry     beta= 0.70
     Davidson diagonalization with overlap
     ethr =  3.38E-06,  avg # of iterations =  7.0

     negative rho (up, down):  1.494E-02 0.000E+00

     add environment contribution to local potential
     Polarization accuracy = 9.7E-12, # of iterations =  43

     total cpu time spent up to now is     4907.1 secs

     total energy              =   -3437.46348602 Ry
     estimated scf accuracy    <       0.00564107 Ry
     electrostatic embedding   =      -0.04724428 Ry
     cavitation energy         =       0.02134848 Ry
     PV energy                 =      -0.08411454 Ry
     correction to one-el term =     183.66082461 Ry

     iteration # 12     ecut=    50.00 Ry     beta= 0.70
     Davidson diagonalization with overlap
     ethr =  1.53E-06,  avg # of iterations =  8.0

     negative rho (up, down):  7.518E-03 0.000E+00

     add environment contribution to local potential
     Polarization accuracy = 6.1E-12, # of iterations =  44

     total cpu time spent up to now is     5261.6 secs

     total energy              =   -3437.46449968 Ry
     estimated scf accuracy    <       0.00446137 Ry
     electrostatic embedding   =      -0.04797086 Ry
     cavitation energy         =       0.02097001 Ry
     PV energy                 =      -0.08456996 Ry
     correction to one-el term =     185.15110036 Ry

     iteration # 13     ecut=    50.00 Ry     beta= 0.70
     Davidson diagonalization with overlap
     ethr =  1.21E-06,  avg # of iterations =  5.0

     negative rho (up, down):  8.356E-04 0.000E+00

     add environment contribution to local potential
     Polarization accuracy = 7.4E-12, # of iterations =  42

     total cpu time spent up to now is     5625.4 secs

     total energy              =   -3437.46491199 Ry
     estimated scf accuracy    <       0.00153336 Ry
     electrostatic embedding   =      -0.04621169 Ry
     cavitation energy         =       0.02106893 Ry
     PV energy                 =      -0.08452706 Ry
     correction to one-el term =     185.24319808 Ry

     iteration # 14     ecut=    50.00 Ry     beta= 0.70
     Davidson diagonalization with overlap
     ethr =  4.17E-07,  avg # of iterations =  7.0

     negative rho (up, down):  2.593E-06 0.000E+00

     add environment contribution to local potential
     Polarization accuracy = 4.4E-12, # of iterations =  42

     total cpu time spent up to now is     5959.6 secs

     total energy              =   -3437.46534395 Ry
     estimated scf accuracy    <       0.00078157 Ry
     electrostatic embedding   =      -0.04449377 Ry
     cavitation energy         =       0.02093469 Ry
     PV energy                 =      -0.08486380 Ry
     correction to one-el term =     186.15863293 Ry

     iteration # 15     ecut=    50.00 Ry     beta= 0.70
     Davidson diagonalization with overlap
     ethr =  2.12E-07,  avg # of iterations =  7.0

     negative rho (up, down):  1.934E-05 0.000E+00

     add environment contribution to local potential
     Polarization accuracy = 4.0E-12, # of iterations =  42

     total cpu time spent up to now is     6307.9 secs

     total energy              =   -3437.46555355 Ry
     estimated scf accuracy    <       0.00019778 Ry
     electrostatic embedding   =      -0.04315068 Ry
     cavitation energy         =       0.02092190 Ry
     PV energy                 =      -0.08497114 Ry
     correction to one-el term =     186.98130654 Ry

     iteration # 16     ecut=    50.00 Ry     beta= 0.70
     Davidson diagonalization with overlap
     ethr =  5.37E-08,  avg # of iterations =  7.0

     negative rho (up, down):  3.433E-04 0.000E+00

     add environment contribution to local potential
     Polarization accuracy = 3.9E-12, # of iterations =  42

     total cpu time spent up to now is     6659.5 secs

     total energy              =   -3437.46559099 Ry
     estimated scf accuracy    <       0.00008916 Ry
     electrostatic embedding   =      -0.04239974 Ry
     cavitation energy         =       0.02092729 Ry
     PV energy                 =      -0.08500027 Ry
     correction to one-el term =     187.39733179 Ry

     iteration # 17     ecut=    50.00 Ry     beta= 0.70
     Davidson diagonalization with overlap
     ethr =  2.42E-08,  avg # of iterations =  2.0

     negative rho (up, down):  2.163E-04 0.000E+00

     add environment contribution to local potential
     Polarization accuracy = 4.3E-12, # of iterations =  42

     total cpu time spent up to now is     7026.7 secs

     total energy              =   -3437.46560657 Ry
     estimated scf accuracy    <       0.00000325 Ry
     electrostatic embedding   =      -0.04188121 Ry
     cavitation energy         =       0.02094010 Ry
     PV energy                 =      -0.08501037 Ry
     correction to one-el term =     187.57644987 Ry

     iteration # 18     ecut=    50.00 Ry     beta= 0.70
     Davidson diagonalization with overlap
     ethr =  8.84E-10,  avg # of iterations =  3.0

     negative rho (up, down):  1.225E-04 0.000E+00

     add environment contribution to local potential
     Polarization accuracy = 4.5E-12, # of iterations =  42

     total cpu time spent up to now is     7343.3 secs

     total energy              =   -3437.46560834 Ry
     estimated scf accuracy    <       0.00000092 Ry
     electrostatic embedding   =      -0.04181427 Ry
     cavitation energy         =       0.02094400 Ry
     PV energy                 =      -0.08500111 Ry
     correction to one-el term =     187.62570099 Ry

     iteration # 19     ecut=    50.00 Ry     beta= 0.70
     Davidson diagonalization with overlap
     ethr =  2.51E-10,  avg # of iterations =  2.0

     negative rho (up, down):  1.720E-04 0.000E+00

     add environment contribution to local potential
     Polarization accuracy = 4.6E-12, # of iterations =  42

     total cpu time spent up to now is     7670.8 secs

     total energy              =   -3437.46560869 Ry
     estimated scf accuracy    <       0.00000068 Ry
     electrostatic embedding   =      -0.04173244 Ry
     cavitation energy         =       0.02094275 Ry
     PV energy                 =      -0.08500461 Ry
     correction to one-el term =     187.64465001 Ry

     iteration # 20     ecut=    50.00 Ry     beta= 0.70
     Davidson diagonalization with overlap
     ethr =  1.85E-10,  avg # of iterations =  2.0

     negative rho (up, down):  1.544E-04 0.000E+00

     add environment contribution to local potential
     Polarization accuracy = 4.7E-12, # of iterations =  42

     total cpu time spent up to now is     8008.5 secs

     total energy              =   -3437.46560907 Ry
     estimated scf accuracy    <       0.00000025 Ry
     electrostatic embedding   =      -0.04167103 Ry
     cavitation energy         =       0.02094176 Ry
     PV energy                 =      -0.08500752 Ry
     correction to one-el term =     187.66750199 Ry

     iteration # 21     ecut=    50.00 Ry     beta= 0.70
     Davidson diagonalization with overlap
     ethr =  6.87E-11,  avg # of iterations =  2.0

     negative rho (up, down):  1.458E-04 0.000E+00

     add environment contribution to local potential
     Polarization accuracy = 4.7E-12, # of iterations =  42

     total cpu time spent up to now is     8365.5 secs

     total energy              =   -3437.46560946 Ry
     estimated scf accuracy    <       0.00000021 Ry
     electrostatic embedding   =      -0.04165089 Ry
     cavitation energy         =       0.02094116 Ry
     PV energy                 =      -0.08500778 Ry
     correction to one-el term =     187.67187560 Ry

     iteration # 22     ecut=    50.00 Ry     beta= 0.70
     Davidson diagonalization with overlap
     ethr =  5.74E-11,  avg # of iterations =  2.0

     negative rho (up, down):  1.087E-04 0.000E+00

     add environment contribution to local potential
     Polarization accuracy = 4.7E-12, # of iterations =  42

     total cpu time spent up to now is     8728.0 secs

     total energy              =   -3437.46560970 Ry
     estimated scf accuracy    <       0.00000018 Ry
     electrostatic embedding   =      -0.04163773 Ry
     cavitation energy         =       0.02094081 Ry
     PV energy                 =      -0.08500828 Ry
     correction to one-el term =     187.67553454 Ry

     iteration # 23     ecut=    50.00 Ry     beta= 0.70
     Davidson diagonalization with overlap
     ethr =  4.95E-11,  avg # of iterations =  1.0

     negative rho (up, down):  1.050E-04 0.000E+00

     add environment contribution to local potential
     Polarization accuracy = 4.7E-12, # of iterations =  42

     total cpu time spent up to now is     9088.2 secs

     total energy              =   -3437.46561024 Ry
     estimated scf accuracy    <       0.00000017 Ry
     electrostatic embedding   =      -0.04163799 Ry
     cavitation energy         =       0.02094058 Ry
     PV energy                 =      -0.08500744 Ry
     correction to one-el term =     187.67353256 Ry

     iteration # 24     ecut=    50.00 Ry     beta= 0.70
     Davidson diagonalization with overlap
     ethr =  4.73E-11,  avg # of iterations =  1.0

     negative rho (up, down):  9.538E-05 0.000E+00

     add environment contribution to local potential
     Polarization accuracy = 4.7E-12, # of iterations =  42

     total cpu time spent up to now is     9428.2 secs

     total energy              =   -3437.46561072 Ry
     estimated scf accuracy    <       0.00000016 Ry
     electrostatic embedding   =      -0.04164301 Ry
     cavitation energy         =       0.02094044 Ry
     PV energy                 =      -0.08500736 Ry
     correction to one-el term =     187.67150387 Ry

     iteration # 25     ecut=    50.00 Ry     beta= 0.70
     Davidson diagonalization with overlap
     ethr =  4.41E-11,  avg # of iterations =  1.0

     negative rho (up, down):  1.032E-04 0.000E+00

     add environment contribution to local potential
     Polarization accuracy = 4.7E-12, # of iterations =  42

     total cpu time spent up to now is     9793.7 secs

     total energy              =   -3437.46561169 Ry
     estimated scf accuracy    <       0.00000016 Ry
     electrostatic embedding   =      -0.04164811 Ry
     cavitation energy         =       0.02094054 Ry
     PV energy                 =      -0.08500669 Ry
     correction to one-el term =     187.67008557 Ry

     iteration # 26     ecut=    50.00 Ry     beta= 0.70
     Davidson diagonalization with overlap
     ethr =  4.30E-11,  avg # of iterations =  1.0

     negative rho (up, down):  1.166E-04 0.000E+00

     add environment contribution to local potential
     Polarization accuracy = 4.6E-12, # of iterations =  42

     total cpu time spent up to now is    10144.4 secs

     total energy              =   -3437.46561249 Ry
     estimated scf accuracy    <       0.00000015 Ry
     electrostatic embedding   =      -0.04164970 Ry
     cavitation energy         =       0.02094054 Ry
     PV energy                 =      -0.08500689 Ry
     correction to one-el term =     187.67040060 Ry

     iteration # 27     ecut=    50.00 Ry     beta= 0.70
     Davidson diagonalization with overlap
     ethr =  4.14E-11,  avg # of iterations =  2.0

     negative rho (up, down):  1.367E-04 0.000E+00

     add environment contribution to local potential
     Polarization accuracy = 4.5E-12, # of iterations =  42

     total cpu time spent up to now is    10506.9 secs

     total energy              =   -3437.46561931 Ry
     estimated scf accuracy    <       0.00000017 Ry
     electrostatic embedding   =      -0.04166845 Ry
     cavitation energy         =       0.02094069 Ry
     PV energy                 =      -0.08500647 Ry
     correction to one-el term =     187.66744211 Ry

     iteration # 28     ecut=    50.00 Ry     beta= 0.70
     Davidson diagonalization with overlap
     ethr =  4.14E-11,  avg # of iterations =  2.0

     negative rho (up, down):  1.236E-04 0.000E+00

     add environment contribution to local potential
     Polarization accuracy = 4.2E-12, # of iterations =  42

     total cpu time spent up to now is    10816.2 secs

     total energy              =   -3437.46562505 Ry
     estimated scf accuracy    <       0.00000013 Ry
     electrostatic embedding   =      -0.04165510 Ry
     cavitation energy         =       0.02094039 Ry
     PV energy                 =      -0.08500756 Ry
     correction to one-el term =     187.67317540 Ry

     iteration # 29     ecut=    50.00 Ry     beta= 0.70
     Davidson diagonalization with overlap
     ethr =  3.52E-11,  avg # of iterations =  5.0

     negative rho (up, down):  1.092E-04 0.000E+00

     add environment contribution to local potential
     Polarization accuracy = 4.6E-12, # of iterations =  42

     total cpu time spent up to now is    11159.7 secs

     total energy              =   -3437.46563377 Ry
     estimated scf accuracy    <       0.00000011 Ry
     electrostatic embedding   =      -0.04164813 Ry
     cavitation energy         =       0.02093999 Ry
     PV energy                 =      -0.08500808 Ry
     correction to one-el term =     187.67279990 Ry

     iteration # 30     ecut=    50.00 Ry     beta= 0.70
     Davidson diagonalization with overlap
     ethr =  2.94E-11,  avg # of iterations =  2.0

     negative rho (up, down):  1.165E-04 0.000E+00

     add environment contribution to local potential
     Polarization accuracy = 4.6E-12, # of iterations =  42

     total cpu time spent up to now is    11508.6 secs

     total energy              =   -3437.46563891 Ry
     estimated scf accuracy    <       0.00000010 Ry
     electrostatic embedding   =      -0.04164675 Ry
     cavitation energy         =       0.02094009 Ry
     PV energy                 =      -0.08500755 Ry
     correction to one-el term =     187.67202165 Ry

     iteration # 31     ecut=    50.00 Ry     beta= 0.70
     Davidson diagonalization with overlap
     ethr =  2.68E-11,  avg # of iterations =  1.0

     negative rho (up, down):  1.097E-04 0.000E+00

     add environment contribution to local potential
     Polarization accuracy = 4.6E-12, # of iterations =  42

     total cpu time spent up to now is    11846.7 secs

     total energy              =   -3437.46564030 Ry
     estimated scf accuracy    <       0.00000010 Ry
     electrostatic embedding   =      -0.04164845 Ry
     cavitation energy         =       0.02094027 Ry
     PV energy                 =      -0.08500752 Ry
     correction to one-el term =     187.67198486 Ry

     iteration # 32     ecut=    50.00 Ry     beta= 0.70
     Davidson diagonalization with overlap
     ethr =  2.66E-11,  avg # of iterations =  1.0

     negative rho (up, down):  1.121E-04 0.000E+00

     add environment contribution to local potential
     Polarization accuracy = 4.6E-12, # of iterations =  42

     total cpu time spent up to now is    12195.9 secs

     total energy              =   -3437.46564132 Ry
     estimated scf accuracy    <       0.00000010 Ry
     electrostatic embedding   =      -0.04164867 Ry
     cavitation energy         =       0.02094039 Ry
     PV energy                 =      -0.08500721 Ry
     correction to one-el term =     187.67108314 Ry

     iteration # 33     ecut=    50.00 Ry     beta= 0.70
     Davidson diagonalization with overlap
     ethr =  2.59E-11,  avg # of iterations =  1.0

     negative rho (up, down):  1.131E-04 0.000E+00

     add environment contribution to local potential
     Polarization accuracy = 4.6E-12, # of iterations =  42

     total cpu time spent up to now is    12538.3 secs

     total energy              =   -3437.46564159 Ry
     estimated scf accuracy    <       0.00000009 Ry
     electrostatic embedding   =      -0.04164665 Ry
     cavitation energy         =       0.02094052 Ry
     PV energy                 =      -0.08500725 Ry
     correction to one-el term =     187.67149575 Ry

     iteration # 34     ecut=    50.00 Ry     beta= 0.70
     Davidson diagonalization with overlap
     ethr =  2.58E-11,  avg # of iterations =  1.0

     negative rho (up, down):  1.132E-04 0.000E+00

     add environment contribution to local potential
     Polarization accuracy = 4.6E-12, # of iterations =  42

     total cpu time spent up to now is    12905.7 secs

     total energy              =   -3437.46564163 Ry
     estimated scf accuracy    <       0.00000009 Ry
     electrostatic embedding   =      -0.04164674 Ry
     cavitation energy         =       0.02094054 Ry
     PV energy                 =      -0.08500727 Ry
     correction to one-el term =     187.67159970 Ry

     iteration # 35     ecut=    50.00 Ry     beta= 0.70
     Davidson diagonalization with overlap
     ethr =  2.58E-11,  avg # of iterations =  1.0

     negative rho (up, down):  1.131E-04 0.000E+00

     add environment contribution to local potential
     Polarization accuracy = 4.6E-12, # of iterations =  42

     total cpu time spent up to now is    13253.4 secs

     total energy              =   -3437.46564163 Ry
     estimated scf accuracy    <       0.00000009 Ry
     electrostatic embedding   =      -0.04164684 Ry
     cavitation energy         =       0.02094055 Ry
     PV energy                 =      -0.08500727 Ry
     correction to one-el term =     187.67157647 Ry

     iteration # 36     ecut=    50.00 Ry     beta= 0.70
     Davidson diagonalization with overlap
     ethr =  2.58E-11,  avg # of iterations =  1.0

     negative rho (up, down):  1.130E-04 0.000E+00

     add environment contribution to local potential
     Polarization accuracy = 4.6E-12, # of iterations =  42

     total cpu time spent up to now is    13593.5 secs

     total energy              =   -3437.46564163 Ry
     estimated scf accuracy    <       0.00000009 Ry
     electrostatic embedding   =      -0.04164715 Ry
     cavitation energy         =       0.02094055 Ry
     PV energy                 =      -0.08500727 Ry
     correction to one-el term =     187.67149355 Ry

     iteration # 37     ecut=    50.00 Ry     beta= 0.70
     Davidson diagonalization with overlap
     ethr =  2.58E-11,  avg # of iterations =  1.0

     negative rho (up, down):  1.130E-04 0.000E+00

     add environment contribution to local potential
     Polarization accuracy = 4.6E-12, # of iterations =  42

     total cpu time spent up to now is    13945.7 secs

     total energy              =   -3437.46564164 Ry
     estimated scf accuracy    <       0.00000009 Ry
     electrostatic embedding   =      -0.04164738 Ry
     cavitation energy         =       0.02094056 Ry
     PV energy                 =      -0.08500727 Ry
     correction to one-el term =     187.67144532 Ry

     iteration # 38     ecut=    50.00 Ry     beta= 0.70
     Davidson diagonalization with overlap
     ethr =  2.58E-11,  avg # of iterations =  1.0

     negative rho (up, down):  1.131E-04 0.000E+00

     add environment contribution to local potential
     Polarization accuracy = 4.6E-12, # of iterations =  42

     total cpu time spent up to now is    14276.3 secs

     total energy              =   -3437.46564165 Ry
     estimated scf accuracy    <       0.00000009 Ry
     electrostatic embedding   =      -0.04164736 Ry
     cavitation energy         =       0.02094056 Ry
     PV energy                 =      -0.08500727 Ry
     correction to one-el term =     187.67143915 Ry

     iteration # 39     ecut=    50.00 Ry     beta= 0.70
     Davidson diagonalization with overlap
     ethr =  2.58E-11,  avg # of iterations =  1.0

     negative rho (up, down):  1.131E-04 0.000E+00

     add environment contribution to local potential
     Polarization accuracy = 4.6E-12, # of iterations =  42

     total cpu time spent up to now is    14638.2 secs

     total energy              =   -3437.46564162 Ry
     estimated scf accuracy    <       0.00000009 Ry
     electrostatic embedding   =      -0.04164728 Ry
     cavitation energy         =       0.02094056 Ry
     PV energy                 =      -0.08500728 Ry
     correction to one-el term =     187.67146256 Ry

     iteration # 40     ecut=    50.00 Ry     beta= 0.70
     Davidson diagonalization with overlap
     ethr =  2.58E-11,  avg # of iterations =  1.0

     negative rho (up, down):  1.130E-04 0.000E+00

     add environment contribution to local potential
     Polarization accuracy = 4.6E-12, # of iterations =  42

     total cpu time spent up to now is    14990.8 secs

     total energy              =   -3437.46564161 Ry
     estimated scf accuracy    <       0.00000009 Ry
     electrostatic embedding   =      -0.04164721 Ry
     cavitation energy         =       0.02094055 Ry
     PV energy                 =      -0.08500728 Ry
     correction to one-el term =     187.67148096 Ry

     iteration # 41     ecut=    50.00 Ry     beta= 0.70
     Davidson diagonalization with overlap
     ethr =  2.58E-11,  avg # of iterations =  1.0

     negative rho (up, down):  1.130E-04 0.000E+00

     add environment contribution to local potential
     Polarization accuracy = 4.6E-12, # of iterations =  42

     total cpu time spent up to now is    15307.6 secs

     total energy              =   -3437.46564161 Ry
     estimated scf accuracy    <       0.00000009 Ry
     electrostatic embedding   =      -0.04164720 Ry
     cavitation energy         =       0.02094055 Ry
     PV energy                 =      -0.08500728 Ry
     correction to one-el term =     187.67148130 Ry

     iteration # 42     ecut=    50.00 Ry     beta= 0.70
     Davidson diagonalization with overlap
     ethr =  2.58E-11,  avg # of iterations =  1.0

     negative rho (up, down):  1.130E-04 0.000E+00

     add environment contribution to local potential
     Polarization accuracy = 4.6E-12, # of iterations =  42

     total cpu time spent up to now is    15676.0 secs

     total energy              =   -3437.46564161 Ry
     estimated scf accuracy    <       0.00000009 Ry
     electrostatic embedding   =      -0.04164723 Ry
     cavitation energy         =       0.02094055 Ry
     PV energy                 =      -0.08500727 Ry
     correction to one-el term =     187.67147416 Ry

     iteration # 43     ecut=    50.00 Ry     beta= 0.70
     Davidson diagonalization with overlap
     ethr =  2.58E-11,  avg # of iterations =  1.0

     negative rho (up, down):  1.130E-04 0.000E+00

     add environment contribution to local potential
     Polarization accuracy = 4.6E-12, # of iterations =  42

     total cpu time spent up to now is    16032.4 secs

     total energy              =   -3437.46564161 Ry
     estimated scf accuracy    <       0.00000009 Ry
     electrostatic embedding   =      -0.04164721 Ry
     cavitation energy         =       0.02094055 Ry
     PV energy                 =      -0.08500727 Ry
     correction to one-el term =     187.67147902 Ry

     iteration # 44     ecut=    50.00 Ry     beta= 0.70
     Davidson diagonalization with overlap
     ethr =  2.58E-11,  avg # of iterations =  1.0

     negative rho (up, down):  1.130E-04 0.000E+00

     add environment contribution to local potential
     Polarization accuracy = 4.6E-12, # of iterations =  42

     total cpu time spent up to now is    16371.0 secs

     total energy              =   -3437.46564162 Ry
     estimated scf accuracy    <       0.00000009 Ry
     electrostatic embedding   =      -0.04164721 Ry
     cavitation energy         =       0.02094055 Ry
     PV energy                 =      -0.08500727 Ry
     correction to one-el term =     187.67147669 Ry

     iteration # 45     ecut=    50.00 Ry     beta= 0.70
     Davidson diagonalization with overlap
     ethr =  2.58E-11,  avg # of iterations =  1.0

     negative rho (up, down):  1.130E-04 0.000E+00

     add environment contribution to local potential
     Polarization accuracy = 5.2E-12, # of iterations =  41

     total cpu time spent up to now is    16695.6 secs

     total energy              =   -3437.46564162 Ry
     estimated scf accuracy    <       0.00000009 Ry
     electrostatic embedding   =      -0.04164721 Ry
     cavitation energy         =       0.02094055 Ry
     PV energy                 =      -0.08500727 Ry
     correction to one-el term =     187.67147876 Ry

     iteration # 46     ecut=    50.00 Ry     beta= 0.70
     Davidson diagonalization with overlap
     ethr =  2.58E-11,  avg # of iterations =  1.0

     negative rho (up, down):  1.130E-04 0.000E+00

     add environment contribution to local potential
     Polarization accuracy = 4.6E-12, # of iterations =  42

     total cpu time spent up to now is    17044.8 secs

     total energy              =   -3437.46564162 Ry
     estimated scf accuracy    <       0.00000009 Ry
     electrostatic embedding   =      -0.04164721 Ry
     cavitation energy         =       0.02094055 Ry
     PV energy                 =      -0.08500727 Ry
     correction to one-el term =     187.67147903 Ry

     iteration # 47     ecut=    50.00 Ry     beta= 0.70
     Davidson diagonalization with overlap
     ethr =  2.58E-11,  avg # of iterations =  1.0

     negative rho (up, down):  1.130E-04 0.000E+00

     add environment contribution to local potential
     Polarization accuracy = 4.6E-12, # of iterations =  42

     total cpu time spent up to now is    17367.8 secs

     total energy              =   -3437.46564162 Ry
     estimated scf accuracy    <       0.00000009 Ry
     electrostatic embedding   =      -0.04164720 Ry
     cavitation energy         =       0.02094055 Ry
     PV energy                 =      -0.08500727 Ry
     correction to one-el term =     187.67148141 Ry

     iteration # 48     ecut=    50.00 Ry     beta= 0.70
     Davidson diagonalization with overlap
     ethr =  2.58E-11,  avg # of iterations =  1.0

     negative rho (up, down):  1.130E-04 0.000E+00

     add environment contribution to local potential
     Polarization accuracy = 4.6E-12, # of iterations =  42

     total cpu time spent up to now is    17726.6 secs

     total energy              =   -3437.46564162 Ry
     estimated scf accuracy    <       0.00000009 Ry
     electrostatic embedding   =      -0.04164720 Ry
     cavitation energy         =       0.02094055 Ry
     PV energy                 =      -0.08500727 Ry
     correction to one-el term =     187.67148207 Ry

     iteration # 49     ecut=    50.00 Ry     beta= 0.70
     Davidson diagonalization with overlap
     ethr =  2.58E-11,  avg # of iterations =  1.0

     negative rho (up, down):  1.130E-04 0.000E+00

     add environment contribution to local potential
     Polarization accuracy = 4.6E-12, # of iterations =  42

     total cpu time spent up to now is    18055.9 secs

     total energy              =   -3437.46564162 Ry
     estimated scf accuracy    <       0.00000009 Ry
     electrostatic embedding   =      -0.04164720 Ry
     cavitation energy         =       0.02094055 Ry
     PV energy                 =      -0.08500727 Ry
     correction to one-el term =     187.67148168 Ry

     iteration # 50     ecut=    50.00 Ry     beta= 0.70
     Davidson diagonalization with overlap
     ethr =  2.58E-11,  avg # of iterations =  1.0

     negative rho (up, down):  1.130E-04 0.000E+00

     add environment contribution to local potential
     Polarization accuracy = 4.6E-12, # of iterations =  42

     total cpu time spent up to now is    18380.9 secs

     total energy              =   -3437.46564162 Ry
     estimated scf accuracy    <       0.00000009 Ry
     electrostatic embedding   =      -0.04164721 Ry
     cavitation energy         =       0.02094055 Ry
     PV energy                 =      -0.08500727 Ry
     correction to one-el term =     187.67148091 Ry

     iteration # 51     ecut=    50.00 Ry     beta= 0.70
     Davidson diagonalization with overlap
     ethr =  2.58E-11,  avg # of iterations =  1.0

     negative rho (up, down):  1.130E-04 0.000E+00

     add environment contribution to local potential
     Polarization accuracy = 4.6E-12, # of iterations =  42

     total cpu time spent up to now is    18748.2 secs

     total energy              =   -3437.46564162 Ry
     estimated scf accuracy    <       0.00000009 Ry
     electrostatic embedding   =      -0.04164721 Ry
     cavitation energy         =       0.02094055 Ry
     PV energy                 =      -0.08500727 Ry
     correction to one-el term =     187.67148084 Ry

     iteration # 52     ecut=    50.00 Ry     beta= 0.70
     Davidson diagonalization with overlap
     ethr =  2.58E-11,  avg # of iterations =  1.0

     negative rho (up, down):  1.130E-04 0.000E+00

     add environment contribution to local potential
     Polarization accuracy = 4.6E-12, # of iterations =  42

     total cpu time spent up to now is    19049.2 secs

     total energy              =   -3437.46564163 Ry
     estimated scf accuracy    <       0.00000009 Ry
     electrostatic embedding   =      -0.04164721 Ry
     cavitation energy         =       0.02094055 Ry
     PV energy                 =      -0.08500727 Ry
     correction to one-el term =     187.67147962 Ry

     iteration # 53     ecut=    50.00 Ry     beta= 0.70
     Davidson diagonalization with overlap
     ethr =  2.58E-11,  avg # of iterations =  1.0

     negative rho (up, down):  1.130E-04 0.000E+00

     add environment contribution to local potential
     Polarization accuracy = 4.6E-12, # of iterations =  42

     total cpu time spent up to now is    19388.1 secs

     total energy              =   -3437.46564163 Ry
     estimated scf accuracy    <       0.00000009 Ry
     electrostatic embedding   =      -0.04164721 Ry
     cavitation energy         =       0.02094055 Ry
     PV energy                 =      -0.08500727 Ry
     correction to one-el term =     187.67148004 Ry

     iteration # 54     ecut=    50.00 Ry     beta= 0.70
     Davidson diagonalization with overlap
     ethr =  2.58E-11,  avg # of iterations =  1.0

     negative rho (up, down):  1.130E-04 0.000E+00

     add environment contribution to local potential
     Polarization accuracy = 4.6E-12, # of iterations =  42

     total cpu time spent up to now is    19738.6 secs

     total energy              =   -3437.46564164 Ry
     estimated scf accuracy    <       0.00000009 Ry
     electrostatic embedding   =      -0.04164721 Ry
     cavitation energy         =       0.02094055 Ry
     PV energy                 =      -0.08500727 Ry
     correction to one-el term =     187.67148030 Ry

     iteration # 55     ecut=    50.00 Ry     beta= 0.70
     Davidson diagonalization with overlap
     ethr =  2.58E-11,  avg # of iterations =  1.0

     negative rho (up, down):  1.130E-04 0.000E+00

     add environment contribution to local potential
     Polarization accuracy = 4.6E-12, # of iterations =  42

     total cpu time spent up to now is    20055.2 secs

     total energy              =   -3437.46564164 Ry
     estimated scf accuracy    <       0.00000009 Ry
     electrostatic embedding   =      -0.04164721 Ry
     cavitation energy         =       0.02094055 Ry
     PV energy                 =      -0.08500727 Ry
     correction to one-el term =     187.67148051 Ry

     iteration # 56     ecut=    50.00 Ry     beta= 0.70
     Davidson diagonalization with overlap
     ethr =  2.58E-11,  avg # of iterations =  1.0

     negative rho (up, down):  1.130E-04 0.000E+00

     add environment contribution to local potential
     Polarization accuracy = 4.6E-12, # of iterations =  42

     total cpu time spent up to now is    20416.6 secs

     total energy              =   -3437.46564164 Ry
     estimated scf accuracy    <       0.00000009 Ry
     electrostatic embedding   =      -0.04164721 Ry
     cavitation energy         =       0.02094055 Ry
     PV energy                 =      -0.08500727 Ry
     correction to one-el term =     187.67148089 Ry

     iteration # 57     ecut=    50.00 Ry     beta= 0.70
     Davidson diagonalization with overlap
     ethr =  2.58E-11,  avg # of iterations =  1.0

     negative rho (up, down):  1.130E-04 0.000E+00

     add environment contribution to local potential
     Polarization accuracy = 4.6E-12, # of iterations =  42

     total cpu time spent up to now is    20770.9 secs

     total energy              =   -3437.46564164 Ry
     estimated scf accuracy    <       0.00000009 Ry
     electrostatic embedding   =      -0.04164721 Ry
     cavitation energy         =       0.02094055 Ry
     PV energy                 =      -0.08500727 Ry
     correction to one-el term =     187.67148087 Ry

     iteration # 58     ecut=    50.00 Ry     beta= 0.70
     Davidson diagonalization with overlap
     ethr =  2.58E-11,  avg # of iterations =  1.0

     negative rho (up, down):  1.130E-04 0.000E+00

     add environment contribution to local potential
     Polarization accuracy = 4.6E-12, # of iterations =  42

     total cpu time spent up to now is    21091.4 secs

     total energy              =   -3437.46564164 Ry
     estimated scf accuracy    <       0.00000009 Ry
     electrostatic embedding   =      -0.04164721 Ry
     cavitation energy         =       0.02094055 Ry
     PV energy                 =      -0.08500727 Ry
     correction to one-el term =     187.67148089 Ry

     iteration # 59     ecut=    50.00 Ry     beta= 0.70
     Davidson diagonalization with overlap
     ethr =  2.58E-11,  avg # of iterations =  1.0

     negative rho (up, down):  1.130E-04 0.000E+00

     add environment contribution to local potential
     Polarization accuracy = 4.6E-12, # of iterations =  42

     total cpu time spent up to now is    21447.7 secs

     total energy              =   -3437.46564164 Ry
     estimated scf accuracy    <       0.00000009 Ry
     electrostatic embedding   =      -0.04164721 Ry
     cavitation energy         =       0.02094055 Ry
     PV energy                 =      -0.08500727 Ry
     correction to one-el term =     187.67148088 Ry

     iteration # 60     ecut=    50.00 Ry     beta= 0.70
     Davidson diagonalization with overlap
     ethr =  2.58E-11,  avg # of iterations =  1.0

     negative rho (up, down):  1.130E-04 0.000E+00

     add environment contribution to local potential
     Polarization accuracy = 4.6E-12, # of iterations =  42

     total cpu time spent up to now is    21778.9 secs

     total energy              =   -3437.46564164 Ry
     estimated scf accuracy    <       0.00000009 Ry
     electrostatic embedding   =      -0.04164721 Ry
     cavitation energy         =       0.02094055 Ry
     PV energy                 =      -0.08500727 Ry
     correction to one-el term =     187.67148103 Ry

     iteration # 61     ecut=    50.00 Ry     beta= 0.70
     Davidson diagonalization with overlap
     ethr =  2.58E-11,  avg # of iterations =  1.0

     negative rho (up, down):  1.130E-04 0.000E+00

     add environment contribution to local potential
     Polarization accuracy = 4.6E-12, # of iterations =  42

     total cpu time spent up to now is    22122.7 secs

     total energy              =   -3437.46564164 Ry
     estimated scf accuracy    <       0.00000009 Ry
     electrostatic embedding   =      -0.04164721 Ry
     cavitation energy         =       0.02094055 Ry
     PV energy                 =      -0.08500727 Ry
     correction to one-el term =     187.67148107 Ry

     iteration # 62     ecut=    50.00 Ry     beta= 0.70
     Davidson diagonalization with overlap
     ethr =  2.58E-11,  avg # of iterations =  1.0

     negative rho (up, down):  1.130E-04 0.000E+00

     add environment contribution to local potential
     Polarization accuracy = 4.6E-12, # of iterations =  42

     total cpu time spent up to now is    22461.3 secs

     total energy              =   -3437.46564164 Ry
     estimated scf accuracy    <       0.00000009 Ry
     electrostatic embedding   =      -0.04164721 Ry
     cavitation energy         =       0.02094055 Ry
     PV energy                 =      -0.08500727 Ry
     correction to one-el term =     187.67148100 Ry

     iteration # 63     ecut=    50.00 Ry     beta= 0.70
     Davidson diagonalization with overlap
     ethr =  2.58E-11,  avg # of iterations =  1.0

     negative rho (up, down):  1.130E-04 0.000E+00

     add environment contribution to local potential
     Polarization accuracy = 4.6E-12, # of iterations =  42

     total cpu time spent up to now is    22804.7 secs

     total energy              =   -3437.46564164 Ry
     estimated scf accuracy    <       0.00000009 Ry
     electrostatic embedding   =      -0.04164721 Ry
     cavitation energy         =       0.02094055 Ry
     PV energy                 =      -0.08500727 Ry
     correction to one-el term =     187.67148105 Ry

     iteration # 64     ecut=    50.00 Ry     beta= 0.70
     Davidson diagonalization with overlap
     ethr =  2.58E-11,  avg # of iterations =  1.0

     negative rho (up, down):  1.130E-04 0.000E+00

     add environment contribution to local potential
     Polarization accuracy = 4.6E-12, # of iterations =  42

     total cpu time spent up to now is    23152.7 secs

     total energy              =   -3437.46564164 Ry
     estimated scf accuracy    <       0.00000009 Ry
     electrostatic embedding   =      -0.04164721 Ry
     cavitation energy         =       0.02094055 Ry
     PV energy                 =      -0.08500727 Ry
     correction to one-el term =     187.67148111 Ry

     iteration # 65     ecut=    50.00 Ry     beta= 0.70
     Davidson diagonalization with overlap
     ethr =  2.58E-11,  avg # of iterations =  1.0

     negative rho (up, down):  1.130E-04 0.000E+00

     add environment contribution to local potential
     Polarization accuracy = 4.6E-12, # of iterations =  42

     total cpu time spent up to now is    23505.1 secs

     total energy              =   -3437.46564164 Ry
     estimated scf accuracy    <       0.00000009 Ry
     electrostatic embedding   =      -0.04164721 Ry
     cavitation energy         =       0.02094055 Ry
     PV energy                 =      -0.08500727 Ry
     correction to one-el term =     187.67148118 Ry

     iteration # 66     ecut=    50.00 Ry     beta= 0.70
     Davidson diagonalization with overlap
     ethr =  2.58E-11,  avg # of iterations =  1.0

     negative rho (up, down):  1.130E-04 0.000E+00

     add environment contribution to local potential
     Polarization accuracy = 4.6E-12, # of iterations =  42

     total cpu time spent up to now is    23856.1 secs

     total energy              =   -3437.46564164 Ry
     estimated scf accuracy    <       0.00000009 Ry
     electrostatic embedding   =      -0.04164721 Ry
     cavitation energy         =       0.02094055 Ry
     PV energy                 =      -0.08500727 Ry
     correction to one-el term =     187.67148124 Ry

     iteration # 67     ecut=    50.00 Ry     beta= 0.70
     Davidson diagonalization with overlap
     ethr =  2.58E-11,  avg # of iterations =  1.0

     negative rho (up, down):  1.130E-04 0.000E+00

     add environment contribution to local potential
     Polarization accuracy = 4.6E-12, # of iterations =  42

     total cpu time spent up to now is    24201.2 secs

     total energy              =   -3437.46564164 Ry
     estimated scf accuracy    <       0.00000009 Ry
     electrostatic embedding   =      -0.04164721 Ry
     cavitation energy         =       0.02094055 Ry
     PV energy                 =      -0.08500727 Ry
     correction to one-el term =     187.67148118 Ry

     iteration # 68     ecut=    50.00 Ry     beta= 0.70
     Davidson diagonalization with overlap
     ethr =  2.58E-11,  avg # of iterations =  1.0

     negative rho (up, down):  1.130E-04 0.000E+00

     add environment contribution to local potential
     Polarization accuracy = 4.6E-12, # of iterations =  42

     total cpu time spent up to now is    24546.0 secs

     total energy              =   -3437.46564164 Ry
     estimated scf accuracy    <       0.00000009 Ry
     electrostatic embedding   =      -0.04164721 Ry
     cavitation energy         =       0.02094055 Ry
     PV energy                 =      -0.08500727 Ry
     correction to one-el term =     187.67148115 Ry

     iteration # 69     ecut=    50.00 Ry     beta= 0.70
     Davidson diagonalization with overlap
     ethr =  2.58E-11,  avg # of iterations =  1.0

     negative rho (up, down):  1.130E-04 0.000E+00

     add environment contribution to local potential
     Polarization accuracy = 4.6E-12, # of iterations =  42

     total cpu time spent up to now is    24923.7 secs

     total energy              =   -3437.46564164 Ry
     estimated scf accuracy    <       0.00000009 Ry
     electrostatic embedding   =      -0.04164721 Ry
     cavitation energy         =       0.02094055 Ry
     PV energy                 =      -0.08500727 Ry
     correction to one-el term =     187.67148112 Ry

     iteration # 70     ecut=    50.00 Ry     beta= 0.70
     Davidson diagonalization with overlap
     ethr =  2.58E-11,  avg # of iterations =  1.0

     negative rho (up, down):  1.130E-04 0.000E+00

     add environment contribution to local potential
     Polarization accuracy = 4.6E-12, # of iterations =  42

     total cpu time spent up to now is    25270.4 secs

     total energy              =   -3437.46564164 Ry
     estimated scf accuracy    <       0.00000009 Ry
     electrostatic embedding   =      -0.04164721 Ry
     cavitation energy         =       0.02094055 Ry
     PV energy                 =      -0.08500727 Ry
     correction to one-el term =     187.67148129 Ry

     iteration # 71     ecut=    50.00 Ry     beta= 0.70
     Davidson diagonalization with overlap
     ethr =  2.58E-11,  avg # of iterations =  1.0

     negative rho (up, down):  1.130E-04 0.000E+00

     add environment contribution to local potential
     Polarization accuracy = 4.6E-12, # of iterations =  42

     total cpu time spent up to now is    25632.1 secs

     total energy              =   -3437.46564164 Ry
     estimated scf accuracy    <       0.00000009 Ry
     electrostatic embedding   =      -0.04164721 Ry
     cavitation energy         =       0.02094055 Ry
     PV energy                 =      -0.08500727 Ry
     correction to one-el term =     187.67148125 Ry

     iteration # 72     ecut=    50.00 Ry     beta= 0.70
     Davidson diagonalization with overlap
     ethr =  2.58E-11,  avg # of iterations =  1.0

     negative rho (up, down):  1.130E-04 0.000E+00

     add environment contribution to local potential
     Polarization accuracy = 4.6E-12, # of iterations =  42

     total cpu time spent up to now is    25968.2 secs

     total energy              =   -3437.46564164 Ry
     estimated scf accuracy    <       0.00000009 Ry
     electrostatic embedding   =      -0.04164721 Ry
     cavitation energy         =       0.02094055 Ry
     PV energy                 =      -0.08500727 Ry
     correction to one-el term =     187.67148121 Ry

     iteration # 73     ecut=    50.00 Ry     beta= 0.70
     Davidson diagonalization with overlap
     ethr =  2.58E-11,  avg # of iterations =  1.0

     negative rho (up, down):  1.130E-04 0.000E+00

     add environment contribution to local potential
     Polarization accuracy = 4.6E-12, # of iterations =  42

     total cpu time spent up to now is    26326.8 secs

     total energy              =   -3437.46564164 Ry
     estimated scf accuracy    <       0.00000009 Ry
     electrostatic embedding   =      -0.04164721 Ry
     cavitation energy         =       0.02094055 Ry
     PV energy                 =      -0.08500727 Ry
     correction to one-el term =     187.67148125 Ry

     iteration # 74     ecut=    50.00 Ry     beta= 0.70
     Davidson diagonalization with overlap
     ethr =  2.58E-11,  avg # of iterations =  1.0

     negative rho (up, down):  1.130E-04 0.000E+00

     add environment contribution to local potential
     Polarization accuracy = 4.4E-12, # of iterations =  43

     total cpu time spent up to now is    26681.2 secs

     total energy              =   -3437.46564164 Ry
     estimated scf accuracy    <       0.00000009 Ry
     electrostatic embedding   =      -0.04164721 Ry
     cavitation energy         =       0.02094055 Ry
     PV energy                 =      -0.08500727 Ry
     correction to one-el term =     187.67148119 Ry

     iteration # 75     ecut=    50.00 Ry     beta= 0.70
     Davidson diagonalization with overlap
     ethr =  2.58E-11,  avg # of iterations =  1.0

     negative rho (up, down):  1.130E-04 0.000E+00

     add environment contribution to local potential
     Polarization accuracy = 4.6E-12, # of iterations =  42

     total cpu time spent up to now is    26998.2 secs

     total energy              =   -3437.46564164 Ry
     estimated scf accuracy    <       0.00000009 Ry
     electrostatic embedding   =      -0.04164721 Ry
     cavitation energy         =       0.02094055 Ry
     PV energy                 =      -0.08500727 Ry
     correction to one-el term =     187.67148122 Ry

     iteration # 76     ecut=    50.00 Ry     beta= 0.70
     Davidson diagonalization with overlap
     ethr =  2.58E-11,  avg # of iterations =  1.0

     negative rho (up, down):  1.130E-04 0.000E+00

     add environment contribution to local potential
     Polarization accuracy = 4.6E-12, # of iterations =  42

     total cpu time spent up to now is    27358.4 secs

     total energy              =   -3437.46564164 Ry
     estimated scf accuracy    <       0.00000009 Ry
     electrostatic embedding   =      -0.04164721 Ry
     cavitation energy         =       0.02094055 Ry
     PV energy                 =      -0.08500727 Ry
     correction to one-el term =     187.67148132 Ry

     iteration # 77     ecut=    50.00 Ry     beta= 0.70
     Davidson diagonalization with overlap
     ethr =  2.58E-11,  avg # of iterations =  1.0

     negative rho (up, down):  1.130E-04 0.000E+00

     add environment contribution to local potential
     Polarization accuracy = 4.6E-12, # of iterations =  42

     total cpu time spent up to now is    27724.4 secs

     total energy              =   -3437.46564164 Ry
     estimated scf accuracy    <       0.00000009 Ry
     electrostatic embedding   =      -0.04164721 Ry
     cavitation energy         =       0.02094055 Ry
     PV energy                 =      -0.08500727 Ry
     correction to one-el term =     187.67148133 Ry

     iteration # 78     ecut=    50.00 Ry     beta= 0.70
     Davidson diagonalization with overlap
     ethr =  2.58E-11,  avg # of iterations =  1.0

     negative rho (up, down):  1.130E-04 0.000E+00

     add environment contribution to local potential
     Polarization accuracy = 4.6E-12, # of iterations =  42

     total cpu time spent up to now is    28070.4 secs

     total energy              =   -3437.46564164 Ry
     estimated scf accuracy    <       0.00000009 Ry
     electrostatic embedding   =      -0.04164721 Ry
     cavitation energy         =       0.02094055 Ry
     PV energy                 =      -0.08500727 Ry
     correction to one-el term =     187.67148128 Ry

     iteration # 79     ecut=    50.00 Ry     beta= 0.70
     Davidson diagonalization with overlap
     ethr =  2.58E-11,  avg # of iterations =  1.0

     negative rho (up, down):  1.130E-04 0.000E+00

     add environment contribution to local potential
     Polarization accuracy = 4.6E-12, # of iterations =  42

     total cpu time spent up to now is    28398.9 secs

     total energy              =   -3437.46564164 Ry
     estimated scf accuracy    <       0.00000009 Ry
     electrostatic embedding   =      -0.04164721 Ry
     cavitation energy         =       0.02094055 Ry
     PV energy                 =      -0.08500727 Ry
     correction to one-el term =     187.67148120 Ry

     iteration # 80     ecut=    50.00 Ry     beta= 0.70
     Davidson diagonalization with overlap
     ethr =  2.58E-11,  avg # of iterations =  1.0

     negative rho (up, down):  1.130E-04 0.000E+00

     add environment contribution to local potential
     Polarization accuracy = 4.6E-12, # of iterations =  42

     total cpu time spent up to now is    28750.6 secs

     total energy              =   -3437.46564164 Ry
     estimated scf accuracy    <       0.00000009 Ry
     electrostatic embedding   =      -0.04164721 Ry
     cavitation energy         =       0.02094055 Ry
     PV energy                 =      -0.08500727 Ry
     correction to one-el term =     187.67148125 Ry

     iteration # 81     ecut=    50.00 Ry     beta= 0.70
     Davidson diagonalization with overlap
     ethr =  2.58E-11,  avg # of iterations =  1.0

     negative rho (up, down):  1.130E-04 0.000E+00

     add environment contribution to local potential
     Polarization accuracy = 4.9E-12, # of iterations =  42

     total cpu time spent up to now is    29092.8 secs

     total energy              =   -3437.46564164 Ry
     estimated scf accuracy    <       0.00000009 Ry
     electrostatic embedding   =      -0.04164721 Ry
     cavitation energy         =       0.02094055 Ry
     PV energy                 =      -0.08500727 Ry
     correction to one-el term =     187.67148116 Ry

     iteration # 82     ecut=    50.00 Ry     beta= 0.70
     Davidson diagonalization with overlap
     ethr =  2.58E-11,  avg # of iterations =  1.0

     negative rho (up, down):  1.130E-04 0.000E+00

     add environment contribution to local potential
     Polarization accuracy = 4.6E-12, # of iterations =  42

     total cpu time spent up to now is    29444.2 secs

     total energy              =   -3437.46564164 Ry
     estimated scf accuracy    <       0.00000009 Ry
     electrostatic embedding   =      -0.04164721 Ry
     cavitation energy         =       0.02094055 Ry
     PV energy                 =      -0.08500727 Ry
     correction to one-el term =     187.67148115 Ry

     iteration # 83     ecut=    50.00 Ry     beta= 0.70
     Davidson diagonalization with overlap
     ethr =  2.58E-11,  avg # of iterations =  1.0

     negative rho (up, down):  1.130E-04 0.000E+00

     add environment contribution to local potential
     Polarization accuracy = 4.6E-12, # of iterations =  42

     total cpu time spent up to now is    29787.9 secs

     total energy              =   -3437.46564164 Ry
     estimated scf accuracy    <       0.00000009 Ry
     electrostatic embedding   =      -0.04164721 Ry
     cavitation energy         =       0.02094055 Ry
     PV energy                 =      -0.08500727 Ry
     correction to one-el term =     187.67148119 Ry

     iteration # 84     ecut=    50.00 Ry     beta= 0.70
     Davidson diagonalization with overlap
     ethr =  2.58E-11,  avg # of iterations =  1.0

     negative rho (up, down):  1.130E-04 0.000E+00

     add environment contribution to local potential
     Polarization accuracy = 4.6E-12, # of iterations =  42

     total cpu time spent up to now is    30130.4 secs

     total energy              =   -3437.46564164 Ry
     estimated scf accuracy    <       0.00000009 Ry
     electrostatic embedding   =      -0.04164721 Ry
     cavitation energy         =       0.02094055 Ry
     PV energy                 =      -0.08500727 Ry
     correction to one-el term =     187.67148120 Ry

     iteration # 85     ecut=    50.00 Ry     beta= 0.70
     Davidson diagonalization with overlap
     ethr =  2.58E-11,  avg # of iterations =  1.0

     negative rho (up, down):  1.130E-04 0.000E+00

     add environment contribution to local potential
     Polarization accuracy = 4.6E-12, # of iterations =  42

     total cpu time spent up to now is    30481.2 secs

     total energy              =   -3437.46564164 Ry
     estimated scf accuracy    <       0.00000009 Ry
     electrostatic embedding   =      -0.04164721 Ry
     cavitation energy         =       0.02094055 Ry
     PV energy                 =      -0.08500727 Ry
     correction to one-el term =     187.67148125 Ry

     iteration # 86     ecut=    50.00 Ry     beta= 0.70
     Davidson diagonalization with overlap
     ethr =  2.58E-11,  avg # of iterations =  1.0

     negative rho (up, down):  1.130E-04 0.000E+00

     add environment contribution to local potential
     Polarization accuracy = 4.6E-12, # of iterations =  42

     total cpu time spent up to now is    30835.0 secs

     total energy              =   -3437.46564164 Ry
     estimated scf accuracy    <       0.00000009 Ry
     electrostatic embedding   =      -0.04164721 Ry
     cavitation energy         =       0.02094055 Ry
     PV energy                 =      -0.08500727 Ry
     correction to one-el term =     187.67148119 Ry

     iteration # 87     ecut=    50.00 Ry     beta= 0.70
     Davidson diagonalization with overlap
     ethr =  2.58E-11,  avg # of iterations =  1.0

     negative rho (up, down):  1.130E-04 0.000E+00

     add environment contribution to local potential
     Polarization accuracy = 4.6E-12, # of iterations =  42

     total cpu time spent up to now is    31204.2 secs

     total energy              =   -3437.46564164 Ry
     estimated scf accuracy    <       0.00000009 Ry
     electrostatic embedding   =      -0.04164721 Ry
     cavitation energy         =       0.02094055 Ry
     PV energy                 =      -0.08500727 Ry
     correction to one-el term =     187.67148107 Ry

     iteration # 88     ecut=    50.00 Ry     beta= 0.70
     Davidson diagonalization with overlap
     ethr =  2.58E-11,  avg # of iterations =  1.0

     negative rho (up, down):  1.130E-04 0.000E+00

     add environment contribution to local potential
     Polarization accuracy = 4.6E-12, # of iterations =  42

     total cpu time spent up to now is    31477.7 secs

     total energy              =   -3437.46564164 Ry
     estimated scf accuracy    <       0.00000009 Ry
     electrostatic embedding   =      -0.04164721 Ry
     cavitation energy         =       0.02094055 Ry
     PV energy                 =      -0.08500727 Ry
     correction to one-el term =     187.67148109 Ry

     iteration # 89     ecut=    50.00 Ry     beta= 0.70
     Davidson diagonalization with overlap
     ethr =  2.58E-11,  avg # of iterations =  1.0

     negative rho (up, down):  1.130E-04 0.000E+00

     add environment contribution to local potential
     Polarization accuracy = 4.6E-12, # of iterations =  42

     total cpu time spent up to now is    31711.8 secs

     total energy              =   -3437.46564164 Ry
     estimated scf accuracy    <       0.00000009 Ry
     electrostatic embedding   =      -0.04164721 Ry
     cavitation energy         =       0.02094055 Ry
     PV energy                 =      -0.08500727 Ry
     correction to one-el term =     187.67148106 Ry

     iteration # 90     ecut=    50.00 Ry     beta= 0.70
     Davidson diagonalization with overlap
     ethr =  2.58E-11,  avg # of iterations =  1.0

     negative rho (up, down):  1.130E-04 0.000E+00

     add environment contribution to local potential
     Polarization accuracy = 4.6E-12, # of iterations =  42

     total cpu time spent up to now is    32305.6 secs

     total energy              =   -3437.46564164 Ry
     estimated scf accuracy    <       0.00000009 Ry
     electrostatic embedding   =      -0.04164721 Ry
     cavitation energy         =       0.02094055 Ry
     PV energy                 =      -0.08500727 Ry
     correction to one-el term =     187.67148100 Ry

     iteration # 91     ecut=    50.00 Ry     beta= 0.70
     Davidson diagonalization with overlap
     ethr =  2.58E-11,  avg # of iterations =  1.0

     negative rho (up, down):  1.130E-04 0.000E+00

     add environment contribution to local potential
     Polarization accuracy = 4.6E-12, # of iterations =  42

     total cpu time spent up to now is    32507.6 secs

     total energy              =   -3437.46564164 Ry
     estimated scf accuracy    <       0.00000009 Ry
     electrostatic embedding   =      -0.04164721 Ry
     cavitation energy         =       0.02094055 Ry
     PV energy                 =      -0.08500727 Ry
     correction to one-el term =     187.67148100 Ry

     iteration # 92     ecut=    50.00 Ry     beta= 0.70
     Davidson diagonalization with overlap
     ethr =  2.58E-11,  avg # of iterations =  1.0

     negative rho (up, down):  1.130E-04 0.000E+00

     add environment contribution to local potential
     Polarization accuracy = 4.6E-12, # of iterations =  42

     total cpu time spent up to now is    32695.0 secs

     total energy              =   -3437.46564164 Ry
     estimated scf accuracy    <       0.00000009 Ry
     electrostatic embedding   =      -0.04164721 Ry
     cavitation energy         =       0.02094055 Ry
     PV energy                 =      -0.08500727 Ry
     correction to one-el term =     187.67148099 Ry

     iteration # 93     ecut=    50.00 Ry     beta= 0.70
     Davidson diagonalization with overlap
     ethr =  2.58E-11,  avg # of iterations =  1.0

     negative rho (up, down):  1.130E-04 0.000E+00

     add environment contribution to local potential
     Polarization accuracy = 4.6E-12, # of iterations =  42

     total cpu time spent up to now is    32980.7 secs

     total energy              =   -3437.46564164 Ry
     estimated scf accuracy    <       0.00000009 Ry
     electrostatic embedding   =      -0.04164721 Ry
     cavitation energy         =       0.02094055 Ry
     PV energy                 =      -0.08500727 Ry
     correction to one-el term =     187.67148099 Ry

     iteration # 94     ecut=    50.00 Ry     beta= 0.70
     Davidson diagonalization with overlap
     ethr =  2.58E-11,  avg # of iterations =  1.0

     negative rho (up, down):  1.130E-04 0.000E+00

     add environment contribution to local potential
     Polarization accuracy = 4.6E-12, # of iterations =  42

     total cpu time spent up to now is    33184.3 secs

     total energy              =   -3437.46564164 Ry
     estimated scf accuracy    <       0.00000009 Ry
     electrostatic embedding   =      -0.04164721 Ry
     cavitation energy         =       0.02094055 Ry
     PV energy                 =      -0.08500727 Ry
     correction to one-el term =     187.67148094 Ry

     iteration # 95     ecut=    50.00 Ry     beta= 0.70
     Davidson diagonalization with overlap
     ethr =  2.58E-11,  avg # of iterations =  1.0

     negative rho (up, down):  1.130E-04 0.000E+00

     add environment contribution to local potential
     Polarization accuracy = 4.6E-12, # of iterations =  42

     total cpu time spent up to now is    33379.3 secs

     total energy              =   -3437.46564164 Ry
     estimated scf accuracy    <       0.00000009 Ry
     electrostatic embedding   =      -0.04164721 Ry
     cavitation energy         =       0.02094055 Ry
     PV energy                 =      -0.08500727 Ry
     correction to one-el term =     187.67148104 Ry

     iteration # 96     ecut=    50.00 Ry     beta= 0.70
     Davidson diagonalization with overlap
     ethr =  2.58E-11,  avg # of iterations =  1.0

     negative rho (up, down):  1.130E-04 0.000E+00

     add environment contribution to local potential
     Polarization accuracy = 4.6E-12, # of iterations =  42

     total cpu time spent up to now is    33592.7 secs

     total energy              =   -3437.46564164 Ry
     estimated scf accuracy    <       0.00000009 Ry
     electrostatic embedding   =      -0.04164721 Ry
     cavitation energy         =       0.02094055 Ry
     PV energy                 =      -0.08500727 Ry
     correction to one-el term =     187.67148099 Ry

     iteration # 97     ecut=    50.00 Ry     beta= 0.70
     Davidson diagonalization with overlap
     ethr =  2.58E-11,  avg # of iterations =  1.0

     negative rho (up, down):  1.130E-04 0.000E+00

     add environment contribution to local potential
     Polarization accuracy = 4.6E-12, # of iterations =  42

     total cpu time spent up to now is    33778.2 secs

     total energy              =   -3437.46564164 Ry
     estimated scf accuracy    <       0.00000009 Ry
     electrostatic embedding   =      -0.04164721 Ry
     cavitation energy         =       0.02094055 Ry
     PV energy                 =      -0.08500727 Ry
     correction to one-el term =     187.67148139 Ry

     iteration # 98     ecut=    50.00 Ry     beta= 0.70
     Davidson diagonalization with overlap
     ethr =  2.58E-11,  avg # of iterations =  1.0

     negative rho (up, down):  1.130E-04 0.000E+00

     add environment contribution to local potential
     Polarization accuracy = 4.6E-12, # of iterations =  42

     total cpu time spent up to now is    33981.2 secs

     total energy              =   -3437.46564164 Ry
     estimated scf accuracy    <       0.00000009 Ry
     electrostatic embedding   =      -0.04164721 Ry
     cavitation energy         =       0.02094055 Ry
     PV energy                 =      -0.08500727 Ry
     correction to one-el term =     187.67148110 Ry

     iteration # 99     ecut=    50.00 Ry     beta= 0.70
     Davidson diagonalization with overlap
     ethr =  2.58E-11,  avg # of iterations =  1.0

     negative rho (up, down):  1.130E-04 0.000E+00

     add environment contribution to local potential
     Polarization accuracy = 4.6E-12, # of iterations =  42

     total cpu time spent up to now is    34163.3 secs

     total energy              =   -3437.46564164 Ry
     estimated scf accuracy    <       0.00000009 Ry
     electrostatic embedding   =      -0.04164721 Ry
     cavitation energy         =       0.02094055 Ry
     PV energy                 =      -0.08500727 Ry
     correction to one-el term =     187.67148108 Ry

     iteration #100     ecut=    50.00 Ry     beta= 0.70
[...]

     total energy              =   -3437.69494241 Ry
     estimated scf accuracy    <       0.00000010 Ry
     electrostatic embedding   =      -0.02622993 Ry
     cavitation energy         =       0.02073282 Ry
     PV energy                 =      -0.08181887 Ry
     correction to one-el term =     190.36840953 Ry

     iteration # 52     ecut=    50.00 Ry     beta= 0.70
     Davidson diagonalization with overlap
     ethr =  2.60E-11,  avg # of iterations =  1.0

     negative rho (up, down):  1.289E-04 0.000E+00

     add environment contribution to local potential
     Polarization accuracy = 9.8E-12, # of iterations =  41

     total cpu time spent up to now is   203389.4 secs

     total energy              =   -3437.69494241 Ry
     estimated scf accuracy    <       0.00000010 Ry
     electrostatic embedding   =      -0.02622993 Ry
     cavitation energy         =       0.02073282 Ry
     PV energy                 =      -0.08181887 Ry
     correction to one-el term =     190.36840957 Ry

     iteration # 53     ecut=    50.00 Ry     beta= 0.70
     Davidson diagonalization with overlap
     ethr =  2.60E-11,  avg # of iterations =  1.0

     negative rho (up, down):  1.289E-04 0.000E+00

     add environment contribution to local potential
     Polarization accuracy = 4.6E-12, # of iterations =  41

     total cpu time spent up to now is   203539.4 secs

     total energy              =   -3437.69494241 Ry
     estimated scf accuracy    <       0.00000010 Ry
     electrostatic embedding   =      -0.02622993 Ry
     cavitation energy         =       0.02073282 Ry
     PV energy                 =      -0.08181887 Ry
     correction to one-el term =     190.36840745 Ry

     iteration # 54     ecut=    50.00 Ry     beta= 0.70
     Davidson diagonalization with overlap
     ethr =  2.60E-11,  avg # of iterations =  1.0

     negative rho (up, down):  1.289E-04 0.000E+00

     add environment contribution to local potential
     Polarization accuracy = 5.0E-12, # of iterations =  42

     total cpu time spent up to now is   203674.2 secs

     total energy              =   -3437.69494241 Ry
     estimated scf accuracy    <       0.00000010 Ry
     electrostatic embedding   =      -0.02622993 Ry
     cavitation energy         =       0.02073282 Ry
     PV energy                 =      -0.08181887 Ry
     correction to one-el term =     190.36840882 Ry

     iteration # 55     ecut=    50.00 Ry     beta= 0.70
     Davidson diagonalization with overlap
     ethr =  2.60E-11,  avg # of iterations =  1.0

     negative rho (up, down):  1.289E-04 0.000E+00

     add environment contribution to local potential
     Polarization accuracy = 5.0E-12, # of iterations =  42

     total cpu time spent up to now is   203805.7 secs

     total energy              =   -3437.69494241 Ry
     estimated scf accuracy    <       0.00000010 Ry
     electrostatic embedding   =      -0.02622993 Ry
     cavitation energy         =       0.02073282 Ry
     PV energy                 =      -0.08181887 Ry
     correction to one-el term =     190.36840925 Ry

     iteration # 56     ecut=    50.00 Ry     beta= 0.70
     Davidson diagonalization with overlap
     ethr =  2.60E-11,  avg # of iterations =  1.0

     negative rho (up, down):  1.289E-04 0.000E+00

     add environment contribution to local potential
     Polarization accuracy = 5.0E-12, # of iterations =  42

     total cpu time spent up to now is   203945.0 secs

     total energy              =   -3437.69494241 Ry
     estimated scf accuracy    <       0.00000010 Ry
     electrostatic embedding   =      -0.02622993 Ry
     cavitation energy         =       0.02073282 Ry
     PV energy                 =      -0.08181887 Ry
     correction to one-el term =     190.36840912 Ry

     iteration # 57     ecut=    50.00 Ry     beta= 0.70
     Davidson diagonalization with overlap
     ethr =  2.60E-11,  avg # of iterations =  1.0

     negative rho (up, down):  1.289E-04 0.000E+00

     add environment contribution to local potential
     Polarization accuracy = 4.8E-12, # of iterations =  41

     total cpu time spent up to now is   204089.2 secs

     total energy              =   -3437.69494241 Ry
     estimated scf accuracy    <       0.00000010 Ry
     electrostatic embedding   =      -0.02622993 Ry
     cavitation energy         =       0.02073282 Ry
     PV energy                 =      -0.08181887 Ry
     correction to one-el term =     190.36840931 Ry

     iteration # 58     ecut=    50.00 Ry     beta= 0.70
     Davidson diagonalization with overlap
     ethr =  2.60E-11,  avg # of iterations =  1.0

     negative rho (up, down):  1.289E-04 0.000E+00

     add environment contribution to local potential
     Polarization accuracy = 5.0E-12, # of iterations =  42

     total cpu time spent up to now is   204230.0 secs

     total energy              =   -3437.69494241 Ry
     estimated scf accuracy    <       0.00000010 Ry
     electrostatic embedding   =      -0.02622993 Ry
     cavitation energy         =       0.02073282 Ry
     PV energy                 =      -0.08181887 Ry
     correction to one-el term =     190.36841002 Ry

     iteration # 59     ecut=    50.00 Ry     beta= 0.70
     Davidson diagonalization with overlap
     ethr =  2.60E-11,  avg # of iterations =  1.0

     negative rho (up, down):  1.289E-04 0.000E+00

     add environment contribution to local potential
     Polarization accuracy = 5.0E-12, # of iterations =  42

     total cpu time spent up to now is   204353.1 secs

     total energy              =   -3437.69494241 Ry
     estimated scf accuracy    <       0.00000010 Ry
     electrostatic embedding   =      -0.02622993 Ry
     cavitation energy         =       0.02073282 Ry
     PV energy                 =      -0.08181887 Ry
     correction to one-el term =     190.36840931 Ry

     iteration # 60     ecut=    50.00 Ry     beta= 0.70
     Davidson diagonalization with overlap
     ethr =  2.60E-11,  avg # of iterations =  1.0

     negative rho (up, down):  1.289E-04 0.000E+00

     add environment contribution to local potential
     Polarization accuracy = 5.0E-12, # of iterations =  42

     total cpu time spent up to now is   204493.4 secs

     total energy              =   -3437.69494241 Ry
     estimated scf accuracy    <       0.00000010 Ry
     electrostatic embedding   =      -0.02622993 Ry
     cavitation energy         =       0.02073282 Ry
     PV energy                 =      -0.08181887 Ry
     correction to one-el term =     190.36840929 Ry

     iteration # 61     ecut=    50.00 Ry     beta= 0.70
     Davidson diagonalization with overlap
     ethr =  2.60E-11,  avg # of iterations =  1.0

     negative rho (up, down):  1.289E-04 0.000E+00

     add environment contribution to local potential
     Polarization accuracy = 4.6E-12, # of iterations =  41

     total cpu time spent up to now is   204648.5 secs

     total energy              =   -3437.69494241 Ry
     estimated scf accuracy    <       0.00000010 Ry
     electrostatic embedding   =      -0.02622993 Ry
     cavitation energy         =       0.02073282 Ry
     PV energy                 =      -0.08181887 Ry
     correction to one-el term =     190.36840926 Ry

     iteration # 62     ecut=    50.00 Ry     beta= 0.70
     Davidson diagonalization with overlap
     ethr =  2.60E-11,  avg # of iterations =  1.0

     negative rho (up, down):  1.289E-04 0.000E+00

     add environment contribution to local potential
     Polarization accuracy = 5.0E-12, # of iterations =  42

     total cpu time spent up to now is   204780.7 secs

     total energy              =   -3437.69494241 Ry
     estimated scf accuracy    <       0.00000010 Ry
     electrostatic embedding   =      -0.02622993 Ry
     cavitation energy         =       0.02073282 Ry
     PV energy                 =      -0.08181887 Ry
     correction to one-el term =     190.36840949 Ry

     iteration # 63     ecut=    50.00 Ry     beta= 0.70
     Davidson diagonalization with overlap
     ethr =  2.60E-11,  avg # of iterations =  1.0

     negative rho (up, down):  1.289E-04 0.000E+00

     add environment contribution to local potential
     Polarization accuracy = 8.9E-12, # of iterations =  41

     total cpu time spent up to now is   204923.0 secs

     total energy              =   -3437.69494241 Ry
     estimated scf accuracy    <       0.00000010 Ry
     electrostatic embedding   =      -0.02622993 Ry
     cavitation energy         =       0.02073282 Ry
     PV energy                 =      -0.08181887 Ry
     correction to one-el term =     190.36840929 Ry

     iteration # 64     ecut=    50.00 Ry     beta= 0.70
     Davidson diagonalization with overlap
     ethr =  2.60E-11,  avg # of iterations =  1.0

     negative rho (up, down):  1.289E-04 0.000E+00

     add environment contribution to local potential
     Polarization accuracy = 5.0E-12, # of iterations =  42

     total cpu time spent up to now is   205085.4 secs

     total energy              =   -3437.69494241 Ry
     estimated scf accuracy    <       0.00000010 Ry
     electrostatic embedding   =      -0.02622993 Ry
     cavitation energy         =       0.02073282 Ry
     PV energy                 =      -0.08181887 Ry
     correction to one-el term =     190.36840745 Ry

     iteration # 65     ecut=    50.00 Ry     beta= 0.70
     Davidson diagonalization with overlap
     ethr =  2.60E-11,  avg # of iterations =  1.0

     negative rho (up, down):  1.289E-04 0.000E+00

     add environment contribution to local potential
     Polarization accuracy = 5.0E-12, # of iterations =  42

     total cpu time spent up to now is   205246.7 secs

     total energy              =   -3437.69494241 Ry
     estimated scf accuracy    <       0.00000010 Ry
     electrostatic embedding   =      -0.02622993 Ry
     cavitation energy         =       0.02073282 Ry
     PV energy                 =      -0.08181887 Ry
     correction to one-el term =     190.36840922 Ry

     iteration # 66     ecut=    50.00 Ry     beta= 0.70
     Davidson diagonalization with overlap
     ethr =  2.60E-11,  avg # of iterations =  1.0

     negative rho (up, down):  1.289E-04 0.000E+00

     add environment contribution to local potential
     Polarization accuracy = 5.0E-12, # of iterations =  42

     total cpu time spent up to now is   205398.0 secs

     total energy              =   -3437.69494241 Ry
     estimated scf accuracy    <       0.00000010 Ry
     electrostatic embedding   =      -0.02622993 Ry
     cavitation energy         =       0.02073282 Ry
     PV energy                 =      -0.08181887 Ry
     correction to one-el term =     190.36840950 Ry

     iteration # 67     ecut=    50.00 Ry     beta= 0.70
     Davidson diagonalization with overlap
     ethr =  2.60E-11,  avg # of iterations =  1.0

     negative rho (up, down):  1.289E-04 0.000E+00

     add environment contribution to local potential
     Polarization accuracy = 5.0E-12, # of iterations =  42

     total cpu time spent up to now is   205551.4 secs

     total energy              =   -3437.69494241 Ry
     estimated scf accuracy    <       0.00000010 Ry
     electrostatic embedding   =      -0.02622993 Ry
     cavitation energy         =       0.02073282 Ry
     PV energy                 =      -0.08181887 Ry
     correction to one-el term =     190.36840940 Ry

     iteration # 68     ecut=    50.00 Ry     beta= 0.70
     Davidson diagonalization with overlap
     ethr =  2.60E-11,  avg # of iterations =  1.0

     negative rho (up, down):  1.289E-04 0.000E+00

     add environment contribution to local potential
     Polarization accuracy = 5.0E-12, # of iterations =  42

     total cpu time spent up to now is   205704.6 secs

     total energy              =   -3437.69494241 Ry
     estimated scf accuracy    <       0.00000010 Ry
     electrostatic embedding   =      -0.02622993 Ry
     cavitation energy         =       0.02073282 Ry
     PV energy                 =      -0.08181887 Ry
     correction to one-el term =     190.36840948 Ry

     iteration # 69     ecut=    50.00 Ry     beta= 0.70
     Davidson diagonalization with overlap
     ethr =  2.60E-11,  avg # of iterations =  1.0

     negative rho (up, down):  1.289E-04 0.000E+00

     add environment contribution to local potential
     Polarization accuracy = 5.0E-12, # of iterations =  42

     total cpu time spent up to now is   205852.5 secs

     total energy              =   -3437.69494241 Ry
     estimated scf accuracy    <       0.00000010 Ry
     electrostatic embedding   =      -0.02622993 Ry
     cavitation energy         =       0.02073282 Ry
     PV energy                 =      -0.08181887 Ry
     correction to one-el term =     190.36840948 Ry

     iteration # 70     ecut=    50.00 Ry     beta= 0.70
     Davidson diagonalization with overlap
     ethr =  2.60E-11,  avg # of iterations =  1.0

     negative rho (up, down):  1.289E-04 0.000E+00

     add environment contribution to local potential
     Polarization accuracy = 5.0E-12, # of iterations =  42

     total cpu time spent up to now is   206006.3 secs

     total energy              =   -3437.69494241 Ry
     estimated scf accuracy    <       0.00000010 Ry
     electrostatic embedding   =      -0.02622993 Ry
     cavitation energy         =       0.02073282 Ry
     PV energy                 =      -0.08181887 Ry
     correction to one-el term =     190.36840951 Ry

     iteration # 71     ecut=    50.00 Ry     beta= 0.70
     Davidson diagonalization with overlap
     ethr =  2.60E-11,  avg # of iterations =  1.0

     negative rho (up, down):  1.289E-04 0.000E+00

     add environment contribution to local potential
     Polarization accuracy = 5.0E-12, # of iterations =  42

     total cpu time spent up to now is   206140.4 secs

     total energy              =   -3437.69494241 Ry
     estimated scf accuracy    <       0.00000010 Ry
     electrostatic embedding   =      -0.02622993 Ry
     cavitation energy         =       0.02073282 Ry
     PV energy                 =      -0.08181887 Ry
     correction to one-el term =     190.36840943 Ry

     iteration # 72     ecut=    50.00 Ry     beta= 0.70
     Davidson diagonalization with overlap
     ethr =  2.60E-11,  avg # of iterations =  1.0

     negative rho (up, down):  1.289E-04 0.000E+00

     add environment contribution to local potential
     Polarization accuracy = 4.8E-12, # of iterations =  43

     total cpu time spent up to now is   206297.2 secs

     total energy              =   -3437.69494241 Ry
     estimated scf accuracy    <       0.00000010 Ry
     electrostatic embedding   =      -0.02622993 Ry
     cavitation energy         =       0.02073282 Ry
     PV energy                 =      -0.08181887 Ry
     correction to one-el term =     190.36840939 Ry

     iteration # 73     ecut=    50.00 Ry     beta= 0.70
     Davidson diagonalization with overlap
     ethr =  2.60E-11,  avg # of iterations =  1.0

     negative rho (up, down):  1.289E-04 0.000E+00

     add environment contribution to local potential
     Polarization accuracy = 5.0E-12, # of iterations =  42

     total cpu time spent up to now is   206434.4 secs

     total energy              =   -3437.69494241 Ry
     estimated scf accuracy    <       0.00000010 Ry
     electrostatic embedding   =      -0.02622993 Ry
     cavitation energy         =       0.02073282 Ry
     PV energy                 =      -0.08181887 Ry
     correction to one-el term =     190.36840937 Ry

     iteration # 74     ecut=    50.00 Ry     beta= 0.70
     Davidson diagonalization with overlap
     ethr =  2.60E-11,  avg # of iterations =  1.0

     negative rho (up, down):  1.289E-04 0.000E+00

     add environment contribution to local potential
     Polarization accuracy = 5.0E-12, # of iterations =  42

     total cpu time spent up to now is   206576.3 secs

     total energy              =   -3437.69494241 Ry
     estimated scf accuracy    <       0.00000010 Ry
     electrostatic embedding   =      -0.02622993 Ry
     cavitation energy         =       0.02073282 Ry
     PV energy                 =      -0.08181887 Ry
     correction to one-el term =     190.36840937 Ry

     iteration # 75     ecut=    50.00 Ry     beta= 0.70
     Davidson diagonalization with overlap
     ethr =  2.60E-11,  avg # of iterations =  1.0

     negative rho (up, down):  1.289E-04 0.000E+00

     add environment contribution to local potential
     Polarization accuracy = 5.0E-12, # of iterations =  42

     total cpu time spent up to now is   206743.1 secs

     total energy              =   -3437.69494241 Ry
     estimated scf accuracy    <       0.00000010 Ry
     electrostatic embedding   =      -0.02622993 Ry
     cavitation energy         =       0.02073282 Ry
     PV energy                 =      -0.08181887 Ry
     correction to one-el term =     190.36840944 Ry

     iteration # 76     ecut=    50.00 Ry     beta= 0.70
     Davidson diagonalization with overlap
     ethr =  2.60E-11,  avg # of iterations =  1.0

     negative rho (up, down):  1.289E-04 0.000E+00

     add environment contribution to local potential
     Polarization accuracy = 5.0E-12, # of iterations =  42

     total cpu time spent up to now is   206886.7 secs

     total energy              =   -3437.69494241 Ry
     estimated scf accuracy    <       0.00000010 Ry
     electrostatic embedding   =      -0.02622993 Ry
     cavitation energy         =       0.02073282 Ry
     PV energy                 =      -0.08181887 Ry
     correction to one-el term =     190.36840935 Ry

     iteration # 77     ecut=    50.00 Ry     beta= 0.70
     Davidson diagonalization with overlap
     ethr =  2.60E-11,  avg # of iterations =  1.0

     negative rho (up, down):  1.289E-04 0.000E+00

     add environment contribution to local potential
     Polarization accuracy = 5.0E-12, # of iterations =  42

     total cpu time spent up to now is   207057.2 secs

     total energy              =   -3437.69494241 Ry
     estimated scf accuracy    <       0.00000010 Ry
     electrostatic embedding   =      -0.02622993 Ry
     cavitation energy         =       0.02073282 Ry
     PV energy                 =      -0.08181887 Ry
     correction to one-el term =     190.36840931 Ry

     iteration # 78     ecut=    50.00 Ry     beta= 0.70
     Davidson diagonalization with overlap
     ethr =  2.60E-11,  avg # of iterations =  1.0

     negative rho (up, down):  1.289E-04 0.000E+00

     add environment contribution to local potential
     Polarization accuracy = 5.0E-12, # of iterations =  42

     total cpu time spent up to now is   207200.8 secs

     total energy              =   -3437.69494241 Ry
     estimated scf accuracy    <       0.00000010 Ry
     electrostatic embedding   =      -0.02622993 Ry
     cavitation energy         =       0.02073282 Ry
     PV energy                 =      -0.08181887 Ry
     correction to one-el term =     190.36840926 Ry

     iteration # 79     ecut=    50.00 Ry     beta= 0.70
     Davidson diagonalization with overlap
     ethr =  2.60E-11,  avg # of iterations =  1.0

     negative rho (up, down):  1.289E-04 0.000E+00

     add environment contribution to local potential
     Polarization accuracy = 5.0E-12, # of iterations =  42

     total cpu time spent up to now is   207346.1 secs

     total energy              =   -3437.69494241 Ry
     estimated scf accuracy    <       0.00000010 Ry
     electrostatic embedding   =      -0.02622993 Ry
     cavitation energy         =       0.02073282 Ry
     PV energy                 =      -0.08181887 Ry
     correction to one-el term =     190.36840944 Ry

     iteration # 80     ecut=    50.00 Ry     beta= 0.70
     Davidson diagonalization with overlap
     ethr =  2.60E-11,  avg # of iterations =  1.0

     negative rho (up, down):  1.289E-04 0.000E+00

     add environment contribution to local potential
