
     Program PWSCF v.7.2 starts on 26Jul2023 at 11:17:38 
        Git branch: heads/qe-7.2
        Last git commit: b4c5e8deeb7d1863e7553a87b45f8d22c21926a5
        Last git commit date: Mon Mar 27 16:12:09 2023 +0000
        Last git commit subject: Merge branch 'merge_fix_hubbard' into 'develop'

     This program is part of the open-source Quantum ESPRESSO suite
     for quantum simulation of materials; please cite
         "P. Giannozzi et al., J. Phys.:Condens. Matter 21 395502 (2009);
         "P. Giannozzi et al., J. Phys.:Condens. Matter 29 465901 (2017);
         "P. Giannozzi et al., J. Chem. Phys. 152 154105 (2020);
          URL http://www.quantum-espresso.org", 
     in publications or presentations arising from this work. More details at
     http://www.quantum-espresso.org/quote

     Parallel version (MPI), running on    20 processors

     MPI processes distributed on     1 nodes
     102070 MiB available memory on the printing compute node when the environment starts
 
     Reading input from RuO2-110-0-23.in

     Current dimensions of program PWSCF are:
     Max number of different atomic species (ntypx) = 10
     Max number of k-points (npk) =  40000
     Max angular momentum in pseudopotentials (lmaxx) =  4
 
     Reading input from environ.in:
     * Environ restarting
     * setting up water environment
     * using electronic solvent mode
     * setting boundary derivatives method to SCCS default
     
     file O.pbe-n-kjpaw_psl.0.1.UPF: wavefunction(s)  2P renormalized
     Message from routine setup:
     using ibrav=0 with symmetry is DISCOURAGED, use correct ibrav instead
 
     R & G space division:  proc/nbgrp/npool/nimage =      20
     Subspace diagonalization in iterative solution of the eigenvalue problem:
     one sub-group per band group will be used
     scalapack distributed-memory algorithm (size of sub-group:  2*  2 procs)

 
     Parallelization info
     --------------------
     sticks:   dense  smooth     PW     G-vecs:    dense   smooth      PW
     Min         276     110     29                54982    13912    1877
     Max         277     111     30                54993    13923    1888
     Sum        5537    2217    585              1099789   278381   37601
 
     Using Slab Decomposition
 


     bravais-lattice index     =            0
     lattice parameter (alat)  =      12.3824  a.u.
     unit-cell volume          =    5825.9133 (a.u.)^3
     number of atoms/cell      =           44
     number of atomic types    =            3
     number of electrons       =       364.00
     number of Kohn-Sham states=          218
     kinetic-energy cutoff     =      50.0000  Ry
     charge density cutoff     =     500.0000  Ry
     scf convergence threshold =      1.0E-09
     mixing beta               =       0.7000
     number of iterations used =            8  local-TF  mixing
     energy convergence thresh.=      1.0E-04
     force convergence thresh. =      1.0E-04
     Exchange-correlation= PBE
                           (   1   4   3   4   0   0   0)
     nstep                     =          200


     ================================================================================
 
                                  Environ Setup Summary

     ================================================================================
 
     Please cite

          O. Andreussi, I. Dabo and N. Marzari, J. Chem. Phys. 136, 064102 (2012)

     in publications or presentations arising from this work.

     ================================================================================
 
     Parameters
     ==========

     compensation onset threshold      =               0.1000E+00
     static permittivity               =                    78.30
     surface tension in input (dyn/cm) =                    47.90
     surface tension in internal units =               0.6153E-04
     external pressure in input (GPa)  =                    -0.36
     external pressure in inter. units =              -0.2447E-04

     Solvent Boundary
     ================

     solvent mode                      =               electronic
     derivatives method                =                    chain
     numerical core for derivatives    =                      fft
     switching function adopted        =                     SCCS
     density limit for vacuum region   =               0.5000E-02
     density limit for bulk solvent    =               0.1000E-03

     Electrostatic Setup
     ===================

     electrostatic problem to solve    =              generalized
     numerical solver adopted          =                       cg
     type of auxiliary density adopted =                     none
     numerical core for poisson        =                      fft
     type of pbc corrections           =                parabolic
     numerical core for corrections    =                      1da

     ================================================================================
 

     celldm(1)=  12.382447  celldm(2)=   0.000000  celldm(3)=   0.000000
     celldm(4)=   0.000000  celldm(5)=   0.000000  celldm(6)=   0.000000

     crystal axes: (cart. coord. in units of alat)
               a(1) = (   1.000000   0.000000   0.000000 )  
               a(2) = (   0.000000   0.908473   0.000000 )  
               a(3) = (   0.000000   0.000000   3.377790 )  

     reciprocal axes: (cart. coord. in units 2 pi/alat)
               b(1) = (  1.000000  0.000000  0.000000 )  
               b(2) = (  0.000000  1.100748  0.000000 )  
               b(3) = (  0.000000  0.000000  0.296052 )  


     PseudoPot. # 1 for O  read from file:
     /gpfs/group/ixd4/default/Simon/pseudopotentials/materialscloud/SSSP_1.3.0_PBE_efficiency/O.pbe-n-kjpaw_psl.0.1.UPF
     MD5 check sum: 0234752ac141de4415c5fc33072bef88
     Pseudo is Projector augmented-wave + core cor, Zval =  6.0
     Generated using "atomic" code by A. Dal Corso  v.5.0.99 svn rev. 10869
     Shape of augmentation charge: BESSEL
     Using radial grid of 1095 points,  4 beta functions with: 
                l(1) =   0
                l(2) =   0
                l(3) =   1
                l(4) =   1
     Q(r) pseudized with 0 coefficients 


     PseudoPot. # 2 for Ru read from file:
     /gpfs/group/ixd4/default/Simon/pseudopotentials/materialscloud/SSSP_1.3.0_PBE_efficiency/Ru_ONCV_PBE-1.0.oncvpsp.upf
     MD5 check sum: be037bb81c227cfb9b1461a9f099f4bd
     Pseudo is Norm-conserving, Zval = 16.0
     Generated using ONCVPSP code by D. R. Hamann
     Using radial grid of 1458 points,  6 beta functions with: 
                l(1) =   0
                l(2) =   0
                l(3) =   1
                l(4) =   1
                l(5) =   2
                l(6) =   2

     PseudoPot. # 3 for H  read from file:
     /gpfs/group/ixd4/default/Simon/pseudopotentials/materialscloud/SSSP_1.3.0_PBE_efficiency/H.pbe-rrkjus_psl.1.0.0.UPF
     MD5 check sum: f52b6d4d1c606e5624b1dc7b2218f220
     Pseudo is Ultrasoft, Zval =  1.0
     Generated using "atomic" code by A. Dal Corso  v.5.1
     Using radial grid of  929 points,  2 beta functions with: 
                l(1) =   0
                l(2) =   0
     Q(r) pseudized with 0 coefficients 


     atomic species   valence    mass     pseudopotential
        O              6.00    15.99940     O ( 1.00)
        Ru            16.00   101.07000     Ru( 1.00)
        H              1.00     1.00794     H ( 1.00)

      4 Sym. Ops. (no inversion) found



   Cartesian axes

     site n.     atom                  positions (alat units)
         1           O   tau(   1) = (   0.0000000   0.4592005   0.9242218  )
         2           O   tau(   2) = (   0.5000000   0.4592439   0.9284548  )
         3           O   tau(   3) = (   0.0000000   0.0059531   1.0259324  )
         4           O   tau(   4) = (   0.5000000   0.0059806   1.0260808  )
         5           Ru  tau(   5) = (   0.2500109   0.0064528   1.2129398  )
         6           Ru  tau(   6) = (   0.7499891   0.0064528   1.2129398  )
         7           O   tau(   7) = (   0.2504094   0.2832510   1.2110337  )
         8           O   tau(   8) = (   0.7495906   0.2832510   1.2110337  )
         9           Ru  tau(   9) = (   0.0000000   0.4607926   1.1871237  )
        10           Ru  tau(  10) = (   0.5000000   0.4607784   1.1911195  )
        11           O   tau(  11) = (   0.2504024   0.6380609   1.2100817  )
        12           O   tau(  12) = (   0.7495976   0.6380609   1.2100817  )
        13           O   tau(  13) = (   0.0000000   0.0057357   1.3905465  )
        14           O   tau(  14) = (   0.5000000   0.0056983   1.3907512  )
        15           O   tau(  15) = (   0.0000000   0.4615937   1.4922581  )
        16           O   tau(  16) = (   0.5000000   0.4615750   1.5061320  )
        17           Ru  tau(  17) = (   0.0000000   0.0074674   1.6888985  )
        18           Ru  tau(  18) = (   0.5000000   0.0074819   1.6888985  )
        19           O   tau(  19) = (   0.2488128   0.1835500   1.6888985  )
        20           O   tau(  20) = (   0.7511872   0.1835500   1.6888985  )
        21           Ru  tau(  21) = (   0.2458419   0.4616525   1.6888985  )
        22           Ru  tau(  22) = (   0.7541581   0.4616525   1.6888985  )
        23           O   tau(  23) = (   0.2487606   0.7395811   1.6888985  )
        24           O   tau(  24) = (   0.7512394   0.7395811   1.6888985  )
        25           O   tau(  25) = (   0.0000000   0.4615937   1.8855356  )
        26           O   tau(  26) = (   0.5000000   0.4615750   1.8716617  )
        27           O   tau(  27) = (   0.0000000   0.0057357   1.9872472  )
        28           O   tau(  28) = (   0.5000000   0.0056983   1.9870425  )
        29           Ru  tau(  29) = (   0.2500109   0.0064528   2.1648539  )
        30           Ru  tau(  30) = (   0.7499891   0.0064528   2.1648539  )
        31           O   tau(  31) = (   0.2504094   0.2832510   2.1667600  )
        32           O   tau(  32) = (   0.7495906   0.2832510   2.1667600  )
        33           Ru  tau(  33) = (   0.0000000   0.4607926   2.1906700  )
        34           Ru  tau(  34) = (   0.5000000   0.4607784   2.1866742  )
        35           O   tau(  35) = (   0.2504024   0.6380609   2.1677120  )
        36           O   tau(  36) = (   0.7495976   0.6380609   2.1677120  )
        37           O   tau(  37) = (   0.0000000   0.0059531   2.3518647  )
        38           O   tau(  38) = (   0.5000000   0.0059806   2.3517163  )
        39           O   tau(  39) = (   0.0000000   0.4592005   2.4535719  )
        40           O   tau(  40) = (   0.5000000   0.4592439   2.4493389  )
        41           H   tau(  41) = (   0.0000000   0.0391695   0.8817202  )
        42           H   tau(  42) = (   0.0000000   0.0391695   2.4960701  )
        43           H   tau(  43) = (   0.5000000   0.0390897   0.8818423  )
        44           H   tau(  44) = (   0.5000000   0.0390897   2.4959480  )

     number of k points=     1  Marzari-Vanderbilt smearing, width (Ry)=  0.0300
                       cart. coord. in units 2pi/alat
        k(    1) = (   0.2500000   0.2751871   0.0000000), wk =   2.0000000

     Dense  grid:  1099789 G-vectors     FFT dimensions: (  90,  81, 300)

     Smooth grid:   278381 G-vectors     FFT dimensions: (  60,  54, 192)

     Estimated max dynamical RAM per process >     168.51 MB

     Estimated total dynamical RAM >       3.29 GB

     Check: negative core charge=   -0.000001

     Initial potential from superposition of free atoms

     starting charge     363.9933, renormalised to     364.0000

     add environment contribution to local potential
     Polarization accuracy = 2.0E-12, # of iterations =  24

     negative rho (up, down):  3.467E-05 0.000E+00
     Starting wfcs are  236 randomized atomic wfcs
     Checking if some PAW data can be deallocated... 

     total cpu time spent up to now is      985.2 secs

     per-process dynamical memory:   137.8 Mb

     Self-consistent Calculation

     iteration #  1     ecut=    50.00 Ry     beta= 0.70
     Davidson diagonalization with overlap
     ethr =  1.00E-02,  avg # of iterations =  2.0

     total cpu time spent up to now is     1252.8 secs

     total energy              =   -3430.03398133 Ry
     estimated scf accuracy    <      10.36353423 Ry
     electrostatic embedding   =      -0.00174976 Ry
     cavitation energy         =       0.01971393 Ry
     PV energy                 =      -0.08353591 Ry
     correction to one-el term =     217.99196828 Ry

     iteration #  2     ecut=    50.00 Ry     beta= 0.70
     Davidson diagonalization with overlap
     ethr =  2.85E-03,  avg # of iterations =  2.0

     total cpu time spent up to now is     1564.4 secs

     total energy              =   -3432.23383519 Ry
     estimated scf accuracy    <       2.85619921 Ry
     electrostatic embedding   =      -0.00276573 Ry
     cavitation energy         =       0.01969374 Ry
     PV energy                 =      -0.08410301 Ry
     correction to one-el term =     217.99486695 Ry

     iteration #  3     ecut=    50.00 Ry     beta= 0.70
     Davidson diagonalization with overlap
     ethr =  7.85E-04,  avg # of iterations =  1.0

     total cpu time spent up to now is     1833.4 secs

     total energy              =   -3432.46687424 Ry
     estimated scf accuracy    <       0.86396842 Ry
     electrostatic embedding   =      -0.00326909 Ry
     cavitation energy         =       0.01964059 Ry
     PV energy                 =      -0.08453356 Ry
     correction to one-el term =     217.99640435 Ry

     iteration #  4     ecut=    50.00 Ry     beta= 0.70
     Davidson diagonalization with overlap
     ethr =  2.37E-04,  avg # of iterations =  1.0

     total cpu time spent up to now is     2141.5 secs

     total energy              =   -3432.53377009 Ry
     estimated scf accuracy    <       0.71559123 Ry
     electrostatic embedding   =      -0.00338875 Ry
     cavitation energy         =       0.01984314 Ry
     PV energy                 =      -0.08408202 Ry
     correction to one-el term =     217.99636079 Ry

     iteration #  5     ecut=    50.00 Ry     beta= 0.70
     Davidson diagonalization with overlap
     ethr =  1.97E-04,  avg # of iterations =  1.0

     total cpu time spent up to now is     2401.7 secs

     total energy              =   -3432.51912056 Ry
     estimated scf accuracy    <       0.38601548 Ry
     electrostatic embedding   =      -0.00360209 Ry
     cavitation energy         =       0.02008998 Ry
     PV energy                 =      -0.08360791 Ry
     correction to one-el term =     217.99659196 Ry

     iteration #  6     ecut=    50.00 Ry     beta= 0.70
     Davidson diagonalization with overlap
     ethr =  1.06E-04,  avg # of iterations =  2.0

     total cpu time spent up to now is     2669.8 secs

     total energy              =   -3432.51741053 Ry
     estimated scf accuracy    <       0.21092279 Ry
     electrostatic embedding   =      -0.00379768 Ry
     cavitation energy         =       0.02068140 Ry
     PV energy                 =      -0.08226476 Ry
     correction to one-el term =     217.99641736 Ry

     iteration #  7     ecut=    50.00 Ry     beta= 0.70
     Davidson diagonalization with overlap
     ethr =  5.79E-05,  avg # of iterations =  7.0

     total cpu time spent up to now is     2935.9 secs

     total energy              =   -3432.50987934 Ry
     estimated scf accuracy    <       0.12275666 Ry
     electrostatic embedding   =      -0.00375210 Ry
     cavitation energy         =       0.02095433 Ry
     PV energy                 =      -0.08151612 Ry
     correction to one-el term =     217.99596609 Ry

     iteration #  8     ecut=    50.00 Ry     beta= 0.70
     Davidson diagonalization with overlap
     ethr =  3.37E-05,  avg # of iterations = 14.0

     add environment contribution to local potential
     Polarization accuracy = 5.3E-12, # of iterations =  44

     total cpu time spent up to now is     3224.2 secs

     total energy              =   -3432.50558396 Ry
     estimated scf accuracy    <       0.06215065 Ry
     electrostatic embedding   =      -0.00347959 Ry
     cavitation energy         =       0.02154559 Ry
     PV energy                 =      -0.08000568 Ry
     correction to one-el term =     217.99453976 Ry

     iteration #  9     ecut=    50.00 Ry     beta= 0.70
     Davidson diagonalization with overlap
     ethr =  1.71E-05,  avg # of iterations = 14.0

     negative rho (up, down):  2.728E-04 0.000E+00

     total cpu time spent up to now is     3478.0 secs

     total energy              =   -3432.56772469 Ry
     estimated scf accuracy    <       0.40070827 Ry
     electrostatic embedding   =      -0.05870237 Ry
     cavitation energy         =       0.02189527 Ry
     PV energy                 =      -0.07927232 Ry
     correction to one-el term =     179.46198742 Ry

     iteration # 10     ecut=    50.00 Ry     beta= 0.70
     Davidson diagonalization with overlap
     ethr =  1.71E-05,  avg # of iterations =  1.0

     negative rho (up, down):  2.012E-04 0.000E+00

     total cpu time spent up to now is     3774.8 secs

     total energy              =   -3432.55625854 Ry
     estimated scf accuracy    <       0.24295248 Ry
     electrostatic embedding   =      -0.05898407 Ry
     cavitation energy         =       0.02188392 Ry
     PV energy                 =      -0.07914470 Ry
     correction to one-el term =     179.46311588 Ry

     iteration # 11     ecut=    50.00 Ry     beta= 0.70
     Davidson diagonalization with overlap
     ethr =  1.71E-05,  avg # of iterations =  1.0

     negative rho (up, down):  1.315E-04 0.000E+00

     add environment contribution to local potential
     Polarization accuracy = 4.1E-12, # of iterations =  43

     total cpu time spent up to now is     4074.6 secs

     total energy              =   -3432.55323275 Ry
     estimated scf accuracy    <       0.07145186 Ry
     electrostatic embedding   =      -0.05980557 Ry
     cavitation energy         =       0.02168359 Ry
     PV energy                 =      -0.07915661 Ry
     correction to one-el term =     179.46570872 Ry

     iteration # 12     ecut=    50.00 Ry     beta= 0.70
     Davidson diagonalization with overlap
     ethr =  1.71E-05,  avg # of iterations =  2.0

     negative rho (up, down):  5.876E-03 0.000E+00

     add environment contribution to local potential
     Polarization accuracy = 4.4E-12, # of iterations =  45

     total cpu time spent up to now is     4326.5 secs

     total energy              =   -3432.55611502 Ry
     estimated scf accuracy    <       0.02897219 Ry
     electrostatic embedding   =      -0.06537116 Ry
     cavitation energy         =       0.02151588 Ry
     PV energy                 =      -0.07921537 Ry
     correction to one-el term =     181.34104555 Ry

     iteration # 13     ecut=    50.00 Ry     beta= 0.70
     Davidson diagonalization with overlap
     ethr =  7.96E-06,  avg # of iterations =  5.0

     negative rho (up, down):  2.440E-03 0.000E+00

     add environment contribution to local potential
     Polarization accuracy = 3.0E-12, # of iterations =  43

     total cpu time spent up to now is     4582.3 secs

     total energy              =   -3432.56225048 Ry
     estimated scf accuracy    <       0.00520241 Ry
     electrostatic embedding   =      -0.07936113 Ry
     cavitation energy         =       0.02122034 Ry
     PV energy                 =      -0.07914153 Ry
     correction to one-el term =     182.62878289 Ry

     iteration # 14     ecut=    50.00 Ry     beta= 0.70
     Davidson diagonalization with overlap
     ethr =  1.43E-06,  avg # of iterations =  6.0

     negative rho (up, down):  1.198E-03 0.000E+00

     add environment contribution to local potential
     Polarization accuracy = 2.9E-12, # of iterations =  43

     total cpu time spent up to now is     4892.2 secs

     total energy              =   -3432.56273692 Ry
     estimated scf accuracy    <       0.00451363 Ry
     electrostatic embedding   =      -0.08224953 Ry
     cavitation energy         =       0.02112796 Ry
     PV energy                 =      -0.07928497 Ry
     correction to one-el term =     183.16055042 Ry

     iteration # 15     ecut=    50.00 Ry     beta= 0.70
     Davidson diagonalization with overlap
     ethr =  1.24E-06,  avg # of iterations =  6.0

     negative rho (up, down):  7.420E-05 0.000E+00

     add environment contribution to local potential
     Polarization accuracy = 5.7E-12, # of iterations =  42

     total cpu time spent up to now is     5197.3 secs

     total energy              =   -3432.56274003 Ry
     estimated scf accuracy    <       0.00448831 Ry
     electrostatic embedding   =      -0.08422413 Ry
     cavitation energy         =       0.02105566 Ry
     PV energy                 =      -0.07939171 Ry
     correction to one-el term =     183.64336351 Ry

     iteration # 16     ecut=    50.00 Ry     beta= 0.70
     Davidson diagonalization with overlap
     ethr =  1.23E-06,  avg # of iterations =  4.0

     negative rho (up, down):  5.747E-06 0.000E+00

     add environment contribution to local potential
     Polarization accuracy = 3.9E-12, # of iterations =  42

     total cpu time spent up to now is     5471.8 secs

     total energy              =   -3432.56295713 Ry
     estimated scf accuracy    <       0.00223400 Ry
     electrostatic embedding   =      -0.08337773 Ry
     cavitation energy         =       0.02105398 Ry
     PV energy                 =      -0.07945937 Ry
     correction to one-el term =     183.86749705 Ry

     iteration # 17     ecut=    50.00 Ry     beta= 0.70
     Davidson diagonalization with overlap
     ethr =  6.14E-07,  avg # of iterations =  6.0

     add environment contribution to local potential
     Polarization accuracy = 1.6E-12, # of iterations =  42

     total cpu time spent up to now is     5775.6 secs

     total energy              =   -3432.56283110 Ry
     estimated scf accuracy    <       0.00199406 Ry
     electrostatic embedding   =      -0.08382029 Ry
     cavitation energy         =       0.02102437 Ry
     PV energy                 =      -0.07951986 Ry
     correction to one-el term =     184.20060014 Ry

     iteration # 18     ecut=    50.00 Ry     beta= 0.70
     Davidson diagonalization with overlap
     ethr =  5.48E-07,  avg # of iterations =  7.0

     negative rho (up, down):  8.515E-06 0.000E+00

     add environment contribution to local potential
     Polarization accuracy = 9.6E-12, # of iterations =  41

     total cpu time spent up to now is     6060.6 secs

     total energy              =   -3432.56302470 Ry
     estimated scf accuracy    <       0.00027175 Ry
     electrostatic embedding   =      -0.08135523 Ry
     cavitation energy         =       0.02102673 Ry
     PV energy                 =      -0.07961767 Ry
     correction to one-el term =     184.54388917 Ry

     iteration # 19     ecut=    50.00 Ry     beta= 0.70
     Davidson diagonalization with overlap
     ethr =  7.47E-08,  avg # of iterations =  7.0

     negative rho (up, down):  6.511E-04 0.000E+00

     add environment contribution to local potential
     Polarization accuracy = 7.1E-12, # of iterations =  40

     total cpu time spent up to now is     6315.6 secs

     total energy              =   -3432.56305839 Ry
     estimated scf accuracy    <       0.00011634 Ry
     electrostatic embedding   =      -0.08082317 Ry
     cavitation energy         =       0.02102090 Ry
     PV energy                 =      -0.07964046 Ry
     correction to one-el term =     184.72201740 Ry

     iteration # 20     ecut=    50.00 Ry     beta= 0.70
     Davidson diagonalization with overlap
     ethr =  3.20E-08,  avg # of iterations =  3.0

     negative rho (up, down):  6.235E-04 0.000E+00

     add environment contribution to local potential
     Polarization accuracy = 8.4E-12, # of iterations =  41

     total cpu time spent up to now is     6584.7 secs

     total energy              =   -3432.56309191 Ry
     estimated scf accuracy    <       0.00002920 Ry
     electrostatic embedding   =      -0.07942227 Ry
     cavitation energy         =       0.02102081 Ry
     PV energy                 =      -0.07965301 Ry
     correction to one-el term =     184.97898698 Ry

     iteration # 21     ecut=    50.00 Ry     beta= 0.70
     Davidson diagonalization with overlap
     ethr =  8.02E-09,  avg # of iterations =  2.0

     negative rho (up, down):  1.087E-03 0.000E+00

     add environment contribution to local potential
     Polarization accuracy = 8.8E-12, # of iterations =  41

     total cpu time spent up to now is     6877.7 secs

     total energy              =   -3432.56310323 Ry
     estimated scf accuracy    <       0.00004261 Ry
     electrostatic embedding   =      -0.07927133 Ry
     cavitation energy         =       0.02101689 Ry
     PV energy                 =      -0.07964951 Ry
     correction to one-el term =     185.02537007 Ry

     iteration # 22     ecut=    50.00 Ry     beta= 0.70
     Davidson diagonalization with overlap
     ethr =  8.02E-09,  avg # of iterations =  5.0

     negative rho (up, down):  8.916E-04 0.000E+00

     add environment contribution to local potential
     Polarization accuracy = 1.3E-12, # of iterations =  42

     total cpu time spent up to now is     7171.7 secs

     total energy              =   -3432.56310816 Ry
     estimated scf accuracy    <       0.00000742 Ry
     electrostatic embedding   =      -0.07827409 Ry
     cavitation energy         =       0.02101560 Ry
     PV energy                 =      -0.07964488 Ry
     correction to one-el term =     185.20420525 Ry

     iteration # 23     ecut=    50.00 Ry     beta= 0.70
     Davidson diagonalization with overlap
     ethr =  2.04E-09,  avg # of iterations =  2.0

     negative rho (up, down):  4.216E-04 0.000E+00

     add environment contribution to local potential
     Polarization accuracy = 1.6E-12, # of iterations =  42

     total cpu time spent up to now is     7457.7 secs

     total energy              =   -3432.56310585 Ry
     estimated scf accuracy    <       0.00000200 Ry
     electrostatic embedding   =      -0.07801104 Ry
     cavitation energy         =       0.02101608 Ry
     PV energy                 =      -0.07963556 Ry
     correction to one-el term =     185.23043274 Ry

     iteration # 24     ecut=    50.00 Ry     beta= 0.70
     Davidson diagonalization with overlap
     ethr =  5.49E-10,  avg # of iterations =  6.0

     negative rho (up, down):  2.056E-04 0.000E+00

     add environment contribution to local potential
     Polarization accuracy = 1.7E-12, # of iterations =  42

     total cpu time spent up to now is     7764.1 secs

     total energy              =   -3432.56310683 Ry
     estimated scf accuracy    <       0.00000049 Ry
     electrostatic embedding   =      -0.07817650 Ry
     cavitation energy         =       0.02101708 Ry
     PV energy                 =      -0.07962133 Ry
     correction to one-el term =     185.18390471 Ry

     iteration # 25     ecut=    50.00 Ry     beta= 0.70
     Davidson diagonalization with overlap
     ethr =  1.33E-10,  avg # of iterations =  2.0

     negative rho (up, down):  1.781E-04 0.000E+00

     add environment contribution to local potential
     Polarization accuracy = 1.7E-12, # of iterations =  42

     total cpu time spent up to now is     8069.5 secs

     total energy              =   -3432.56310714 Ry
     estimated scf accuracy    <       0.00000014 Ry
     electrostatic embedding   =      -0.07821547 Ry
     cavitation energy         =       0.02101941 Ry
     PV energy                 =      -0.07961675 Ry
     correction to one-el term =     185.15695230 Ry

     iteration # 26     ecut=    50.00 Ry     beta= 0.70
     Davidson diagonalization with overlap
     ethr =  3.85E-11,  avg # of iterations =  5.0

     negative rho (up, down):  1.680E-04 0.000E+00

     add environment contribution to local potential
     Polarization accuracy = 1.6E-12, # of iterations =  42

     total cpu time spent up to now is     8365.1 secs

     total energy              =   -3432.56310745 Ry
     estimated scf accuracy    <       0.00000007 Ry
     electrostatic embedding   =      -0.07822893 Ry
     cavitation energy         =       0.02102091 Ry
     PV energy                 =      -0.07961663 Ry
     correction to one-el term =     185.14658548 Ry

     iteration # 27     ecut=    50.00 Ry     beta= 0.70
     Davidson diagonalization with overlap
     ethr =  1.99E-11,  avg # of iterations =  1.0

     negative rho (up, down):  1.616E-04 0.000E+00

     add environment contribution to local potential
     Polarization accuracy = 1.6E-12, # of iterations =  42

     total cpu time spent up to now is     8689.3 secs

     total energy              =   -3432.56310761 Ry
     estimated scf accuracy    <       0.00000007 Ry
     electrostatic embedding   =      -0.07823242 Ry
     cavitation energy         =       0.02102118 Ry
     PV energy                 =      -0.07961670 Ry
     correction to one-el term =     185.14455280 Ry

     iteration # 28     ecut=    50.00 Ry     beta= 0.70
     Davidson diagonalization with overlap
     ethr =  1.87E-11,  avg # of iterations =  1.0

     negative rho (up, down):  1.540E-04 0.000E+00

     add environment contribution to local potential
     Polarization accuracy = 1.6E-12, # of iterations =  42

     total cpu time spent up to now is     8952.2 secs

     total energy              =   -3432.56310783 Ry
     estimated scf accuracy    <       0.00000006 Ry
     electrostatic embedding   =      -0.07822813 Ry
     cavitation energy         =       0.02102136 Ry
     PV energy                 =      -0.07961670 Ry
     correction to one-el term =     185.14419500 Ry

     iteration # 29     ecut=    50.00 Ry     beta= 0.70
     Davidson diagonalization with overlap
     ethr =  1.73E-11,  avg # of iterations =  2.0

     negative rho (up, down):  1.375E-04 0.000E+00

     add environment contribution to local potential
     Polarization accuracy = 1.5E-12, # of iterations =  42

     total cpu time spent up to now is     9256.0 secs

     total energy              =   -3432.56310842 Ry
     estimated scf accuracy    <       0.00000006 Ry
     electrostatic embedding   =      -0.07821657 Ry
     cavitation energy         =       0.02102158 Ry
     PV energy                 =      -0.07961680 Ry
     correction to one-el term =     185.14482781 Ry

     iteration # 30     ecut=    50.00 Ry     beta= 0.70
     Davidson diagonalization with overlap
     ethr =  1.65E-11,  avg # of iterations =  2.0

     negative rho (up, down):  1.277E-04 0.000E+00

     add environment contribution to local potential
     Polarization accuracy = 1.4E-12, # of iterations =  42

     total cpu time spent up to now is     9541.8 secs

     total energy              =   -3432.56310951 Ry
     estimated scf accuracy    <       0.00000006 Ry
     electrostatic embedding   =      -0.07820916 Ry
     cavitation energy         =       0.02102186 Ry
     PV energy                 =      -0.07961666 Ry
     correction to one-el term =     185.14380994 Ry

     iteration # 31     ecut=    50.00 Ry     beta= 0.70
     Davidson diagonalization with overlap
     ethr =  1.52E-11,  avg # of iterations =  2.0

     negative rho (up, down):  1.294E-04 0.000E+00

     add environment contribution to local potential
     Polarization accuracy = 9.0E-12, # of iterations =  41

     total cpu time spent up to now is     9880.3 secs

     total energy              =   -3432.56311120 Ry
     estimated scf accuracy    <       0.00000005 Ry
     electrostatic embedding   =      -0.07818647 Ry
     cavitation energy         =       0.02102201 Ry
     PV energy                 =      -0.07961650 Ry
     correction to one-el term =     185.14564936 Ry

     iteration # 32     ecut=    50.00 Ry     beta= 0.70
     Davidson diagonalization with overlap
     ethr =  1.26E-11,  avg # of iterations =  5.0

     negative rho (up, down):  1.387E-04 0.000E+00

     add environment contribution to local potential
     Polarization accuracy = 9.9E-12, # of iterations =  41

     total cpu time spent up to now is    10146.5 secs

     total energy              =   -3432.56311488 Ry
     estimated scf accuracy    <       0.00000003 Ry
     electrostatic embedding   =      -0.07815920 Ry
     cavitation energy         =       0.02102185 Ry
     PV energy                 =      -0.07961668 Ry
     correction to one-el term =     185.14923938 Ry

     iteration # 33     ecut=    50.00 Ry     beta= 0.70
     Davidson diagonalization with overlap
     ethr =  8.60E-12,  avg # of iterations =  5.0

     negative rho (up, down):  1.510E-04 0.000E+00

     add environment contribution to local potential
     Polarization accuracy = 1.5E-12, # of iterations =  42

     total cpu time spent up to now is    10443.0 secs

     total energy              =   -3432.56312064 Ry
     estimated scf accuracy    <       0.00000002 Ry
     electrostatic embedding   =      -0.07814218 Ry
     cavitation energy         =       0.02102169 Ry
     PV energy                 =      -0.07961680 Ry
     correction to one-el term =     185.15173574 Ry

     iteration # 34     ecut=    50.00 Ry     beta= 0.70
     Davidson diagonalization with overlap
     ethr =  4.47E-12,  avg # of iterations =  2.0

     negative rho (up, down):  1.548E-04 0.000E+00

     add environment contribution to local potential
     Polarization accuracy = 9.1E-12, # of iterations =  41

     total cpu time spent up to now is    10676.3 secs

     total energy              =   -3432.56312392 Ry
     estimated scf accuracy    <          9.1E-09 Ry
     electrostatic embedding   =      -0.07814454 Ry
     cavitation energy         =       0.02102145 Ry
     PV energy                 =      -0.07961693 Ry
     correction to one-el term =     185.15298461 Ry

     iteration # 35     ecut=    50.00 Ry     beta= 0.70
     Davidson diagonalization with overlap
     ethr =  2.51E-12,  avg # of iterations = 15.0

     negative rho (up, down):  1.591E-04 0.000E+00

     add environment contribution to local potential
     Polarization accuracy = 5.4E-12, # of iterations =  41

     total cpu time spent up to now is    10963.7 secs

     total energy              =   -3432.56312670 Ry
     estimated scf accuracy    <          8.5E-09 Ry
     electrostatic embedding   =      -0.07815734 Ry
     cavitation energy         =       0.02102145 Ry
     PV energy                 =      -0.07961698 Ry
     correction to one-el term =     185.15202582 Ry

     iteration # 36     ecut=    50.00 Ry     beta= 0.70
     Davidson diagonalization with overlap
     ethr =  2.35E-12,  avg # of iterations =  4.0

     negative rho (up, down):  1.551E-04 0.000E+00

     add environment contribution to local potential
     Polarization accuracy = 5.5E-12, # of iterations =  41

     total cpu time spent up to now is    11278.2 secs

     total energy              =   -3432.56312965 Ry
     estimated scf accuracy    <          1.5E-09 Ry
     electrostatic embedding   =      -0.07818981 Ry
     cavitation energy         =       0.02102151 Ry
     PV energy                 =      -0.07961694 Ry
     correction to one-el term =     185.14859287 Ry

     iteration # 37     ecut=    50.00 Ry     beta= 0.70
     Davidson diagonalization with overlap
     ethr =  4.03E-13,  avg # of iterations =  8.0

     negative rho (up, down):  1.522E-04 0.000E+00

     the potential shift due to the Gaussian-smeared nuclei is    -1.3353 ev

     total cpu time spent up to now is    11550.2 secs

     End of self-consistent calculation

          k = 0.2500 0.2752 0.0000 ( 34780 PWs)   bands (ev):

   -77.8342 -77.8210 -77.8028 -77.7898 -77.1861 -77.1826 -77.1735 -77.1700
   -77.0134 -77.0098 -76.7989 -76.7788 -48.3536 -48.3404 -48.3063 -48.2932
   -47.7838 -47.7707 -47.7137 -47.7010 -47.6873 -47.6813 -47.6745 -47.6684
   -47.4586 -47.4538 -47.4451 -47.4319 -47.4141 -47.4010 -47.0855 -47.0726
   -47.0107 -47.0001 -46.9903 -46.9719 -46.9535 -46.9448 -46.9348 -46.9312
   -46.8971 -46.8255 -46.8235 -46.8212 -46.8118 -46.7358 -46.6678 -46.6285
   -23.7577 -23.6858 -23.3767 -23.3054 -23.2864 -23.2802 -23.2551 -23.1456
   -23.1275 -23.0242 -22.5081 -22.4999 -22.4615 -22.4496 -22.3656 -22.3532
   -22.2535 -22.2452 -22.1621 -22.1142 -22.0966 -22.0453 -22.0340 -21.8684
   -21.5613 -21.4020 -21.3700 -21.2383 -12.1470 -11.9578 -11.8793 -11.7853
   -11.6462 -11.5562 -11.5064 -11.2983 -11.2576 -11.1334 -10.9575 -10.8939
   -10.8410 -10.8302 -10.7806 -10.6970 -10.5070 -10.4985 -10.3709 -10.3468
   -10.3021 -10.2548 -10.1621 -10.0258  -9.9951  -9.8531  -9.8451  -9.7401
    -9.5688  -9.3091  -9.1707  -9.1478  -9.1199  -9.0359  -9.0045  -8.9839
    -8.9810  -8.8728  -8.7739  -8.7553  -8.7004  -8.6256  -8.5930  -8.4153
    -8.4074  -8.2465  -8.0960  -8.0043  -7.9701  -7.9490  -7.9308  -7.8670
    -7.8266  -7.8048  -7.7931  -7.7494  -7.7203  -7.6877  -7.6164  -7.5981
    -7.5973  -7.3803  -7.2947  -7.2431  -7.1688  -7.0642  -6.9504  -6.8156
    -6.7199  -6.6820  -6.5608  -6.4840  -6.3740  -6.3604  -6.3237  -6.2205
    -6.2172  -6.1000  -6.0928  -6.0559  -5.9579  -5.8732  -5.8668  -5.6317
    -4.8067  -4.7934  -4.5220  -4.4718  -4.4680  -4.4645  -4.4257  -4.3599
    -4.2651  -4.2604  -4.2575  -4.2318  -4.2150  -4.0804  -4.0545  -3.9607
    -3.9197  -3.8584  -3.8156  -3.8021  -3.7442  -3.7380  -3.3776  -3.3342
    -3.3022  -3.2663  -3.1811  -3.1273  -2.7915  -2.7882  -2.7871  -2.6781
    -2.6025  -2.5910  -2.3130  -2.2413  -1.7456  -1.7098  -1.6955  -1.4365
    -1.3475  -1.1658  -0.6007  -0.3024  -0.1938  -0.1500  -0.1379   0.0152
     0.1645   0.3968   0.4295   0.4711   0.7282   0.8672   0.9815   1.2615
     1.3333   1.4140

     the Fermi energy is    -3.5791 ev

!    total energy              =   -3432.56313037 Ry
     estimated scf accuracy    <          4.0E-10 Ry
     smearing contrib. (-TS)   =       0.05454273 Ry
     internal energy E=F+TS    =   -3432.61767310 Ry

     The total energy is F=E-TS. E is the sum of the following terms:
     one-electron contribution =  -25697.68355627 Ry
     hartree contribution      =   12835.84709423 Ry
     xc contribution           =    -446.65791853 Ry
     ewald contribution        =    9957.40106760 Ry
     one-center paw contrib.   =    -266.53478108 Ry
     electrostatic embedding   =      -0.07819890 Ry
     cavitation energy         =       0.02102156 Ry
     PV energy                 =      -0.07961682 Ry
     correction to one-el term =     185.14721510 Ry

     WARNING: you are using the parabolic pbc correction;
              the potential shift above must be added to 
              band and Fermi energies.

     convergence has been achieved in  37 iterations

     negative rho (up, down):  1.522E-04 0.000E+00

     Forces acting on atoms (cartesian axes, Ry/au):

     atom    1 type  1   force =     0.00000000   -0.00033276   -0.01482606
     atom    2 type  1   force =     0.00000000   -0.00033947   -0.01745512
     atom    3 type  1   force =     0.00000000   -0.00426574    0.01278491
     atom    4 type  1   force =     0.00000000   -0.00428474    0.01270789
     atom    5 type  2   force =    -0.00066236    0.00188302   -0.01143521
     atom    6 type  2   force =     0.00066236    0.00188302   -0.01143521
     atom    7 type  1   force =    -0.00030423    0.06355255   -0.00004793
     atom    8 type  1   force =     0.00030423    0.06355255   -0.00004793
     atom    9 type  2   force =     0.00000000   -0.00001426    0.01187536
     atom   10 type  2   force =     0.00000000    0.00005759    0.01861462
     atom   11 type  1   force =    -0.00026596   -0.06200670   -0.00140551
     atom   12 type  1   force =     0.00026596   -0.06200670   -0.00140551
     atom   13 type  1   force =     0.00000000   -0.00028921    0.00961007
     atom   14 type  1   force =     0.00000000   -0.00028342    0.01007413
     atom   15 type  1   force =     0.00000000   -0.00017312    0.01265948
     atom   16 type  1   force =     0.00000000   -0.00023974   -0.01436004
     atom   17 type  2   force =     0.00000000   -0.00019706    0.00000000
     atom   18 type  2   force =     0.00000000   -0.00033629    0.00000000
     atom   19 type  1   force =     0.00473283   -0.07283489    0.00000000
     atom   20 type  1   force =    -0.00473283   -0.07283489    0.00000000
     atom   21 type  2   force =     0.01317107   -0.00027517    0.00000000
     atom   22 type  2   force =    -0.01317107   -0.00027517    0.00000000
     atom   23 type  1   force =     0.00481145    0.07357128    0.00000000
     atom   24 type  1   force =    -0.00481145    0.07357128    0.00000000
     atom   25 type  1   force =     0.00000000   -0.00017312   -0.01265948
     atom   26 type  1   force =     0.00000000   -0.00023974    0.01436004
     atom   27 type  1   force =     0.00000000   -0.00028921   -0.00961007
     atom   28 type  1   force =     0.00000000   -0.00028342   -0.01007413
     atom   29 type  2   force =    -0.00066236    0.00188302    0.01143521
     atom   30 type  2   force =     0.00066236    0.00188302    0.01143521
     atom   31 type  1   force =    -0.00030423    0.06355255    0.00004793
     atom   32 type  1   force =     0.00030423    0.06355255    0.00004793
     atom   33 type  2   force =     0.00000000   -0.00001426   -0.01187536
     atom   34 type  2   force =     0.00000000    0.00005759   -0.01861462
     atom   35 type  1   force =    -0.00026596   -0.06200670    0.00140551
     atom   36 type  1   force =     0.00026596   -0.06200670    0.00140551
     atom   37 type  1   force =     0.00000000   -0.00426574   -0.01278491
     atom   38 type  1   force =     0.00000000   -0.00428474   -0.01270789
     atom   39 type  1   force =     0.00000000   -0.00033276    0.01482606
     atom   40 type  1   force =     0.00000000   -0.00033947    0.01745512
     atom   41 type  3   force =     0.00000000    0.00154478   -0.00737752
     atom   42 type  3   force =     0.00000000    0.00154478    0.00737752
     atom   43 type  3   force =     0.00000000    0.00156781   -0.00734497
     atom   44 type  3   force =     0.00000000    0.00156781    0.00734497
     The non-local contrib.  to forces
     atom    1 type  1   force =     0.00000000   -0.00443361    1.22146433
     atom    2 type  1   force =     0.00000000   -0.00445528    1.23976522
     atom    3 type  1   force =     0.00000000    0.46332878   -0.93054041
     atom    4 type  1   force =     0.00000000    0.46109927   -0.92988658
     atom    5 type  2   force =     0.00048547    0.00229597    0.03738500
     atom    6 type  2   force =    -0.00048547    0.00229597    0.03738500
     atom    7 type  1   force =     0.00086373   -0.02741613   -0.09365481
     atom    8 type  1   force =    -0.00086373   -0.02741613   -0.09365481
     atom    9 type  2   force =     0.00000000   -0.00061265   -0.06348922
     atom   10 type  2   force =     0.00000000   -0.00064298   -0.04902186
     atom   11 type  1   force =     0.00053293    0.01974166   -0.08179817
     atom   12 type  1   force =    -0.00053293    0.01974166   -0.08179817
     atom   13 type  1   force =     0.00000000    0.01565212   -0.01237257
     atom   14 type  1   force =     0.00000000    0.01571230   -0.01324818
     atom   15 type  1   force =     0.00000000   -0.00402455    0.19393945
     atom   16 type  1   force =     0.00000000   -0.00344030    0.14552944
     atom   17 type  2   force =     0.00000000    0.00020726    0.00000000
     atom   18 type  2   force =     0.00000000    0.00006972    0.00000000
     atom   19 type  1   force =    -0.02480712    0.06702087    0.00000000
     atom   20 type  1   force =     0.02480712    0.06702087    0.00000000
     atom   21 type  2   force =    -0.00187786   -0.00014914    0.00000000
     atom   22 type  2   force =     0.00187786   -0.00014914    0.00000000
     atom   23 type  1   force =    -0.02529223   -0.06887290    0.00000000
     atom   24 type  1   force =     0.02529223   -0.06887290    0.00000000
     atom   25 type  1   force =     0.00000000   -0.00402455   -0.19393945
     atom   26 type  1   force =     0.00000000   -0.00344030   -0.14552944
     atom   27 type  1   force =     0.00000000    0.01565212    0.01237257
     atom   28 type  1   force =     0.00000000    0.01571230    0.01324818
     atom   29 type  2   force =     0.00048547    0.00229597   -0.03738500
     atom   30 type  2   force =    -0.00048547    0.00229597   -0.03738500
     atom   31 type  1   force =     0.00086373   -0.02741613    0.09365481
     atom   32 type  1   force =    -0.00086373   -0.02741613    0.09365481
     atom   33 type  2   force =     0.00000000   -0.00061265    0.06348922
     atom   34 type  2   force =     0.00000000   -0.00064298    0.04902186
     atom   35 type  1   force =     0.00053293    0.01974166    0.08179817
     atom   36 type  1   force =    -0.00053293    0.01974166    0.08179817
     atom   37 type  1   force =     0.00000000    0.46332878    0.93054041
     atom   38 type  1   force =     0.00000000    0.46109927    0.92988658
     atom   39 type  1   force =     0.00000000   -0.00443361   -1.22146433
     atom   40 type  1   force =     0.00000000   -0.00445528   -1.23976522
     atom   41 type  3   force =     0.00000000   -0.02495882    0.11103464
     atom   42 type  3   force =     0.00000000   -0.02495882   -0.11103464
     atom   43 type  3   force =     0.00000000   -0.02489341    0.11106494
     atom   44 type  3   force =     0.00000000   -0.02489341   -0.11106494
     The ionic contribution  to forces
     atom    1 type  1   force =     0.00000000    0.07042620 -101.89555318
     atom    2 type  1   force =     0.00000000    0.07241144 -101.91741927
     atom    3 type  1   force =    -0.00000000   -0.81090859  -91.36919234
     atom    4 type  1   force =    -0.00000000   -0.80891961  -91.37161363
     atom    5 type  2   force =     0.07159705   -0.06586634 -171.10786406
     atom    6 type  2   force =    -0.07159705   -0.06586634 -171.10786406
     atom    7 type  1   force =     0.03306269    1.27409162  -63.06907285
     atom    8 type  1   force =    -0.03306269    1.27409162  -63.06907285
     atom    9 type  2   force =     0.00000000    0.11652294 -175.21448799
     atom   10 type  2   force =    -0.00000000    0.11924853 -172.56075405
     atom   11 type  1   force =     0.03677625   -1.22991748  -63.36838691
     atom   12 type  1   force =    -0.03677625   -1.22991748  -63.36838691
     atom   13 type  1   force =     0.00000000   -0.04585426  -38.37935519
     atom   14 type  1   force =    -0.00000000   -0.05102320  -38.28394222
     atom   15 type  1   force =     0.00000000   -0.00700895  -27.46348608
     atom   16 type  1   force =     0.00000000   -0.00761116  -26.68580630
     atom   17 type  2   force =    -0.00000000    0.12768714   -0.00045236
     atom   18 type  2   force =     0.00000000    0.11507892   -0.00045046
     atom   19 type  1   force =     0.29304514   -0.54266484   -0.00008155
     atom   20 type  1   force =    -0.29304514   -0.54266484   -0.00008155
     atom   21 type  2   force =    -0.09874149   -0.05440935   -0.00024144
     atom   22 type  2   force =     0.09874149   -0.05440935   -0.00024144
     atom   23 type  1   force =     0.30002725    0.57391002   -0.00008184
     atom   24 type  1   force =    -0.30002725    0.57391002   -0.00008184
     atom   25 type  1   force =    -0.00000000   -0.00700876   27.46332712
     atom   26 type  1   force =     0.00000000   -0.00761097   26.68558940
     atom   27 type  1   force =    -0.00000000   -0.04585679   38.37966037
     atom   28 type  1   force =    -0.00000000   -0.05102584   38.28424616
     atom   29 type  2   force =     0.07159931   -0.06587071  171.10812462
     atom   30 type  2   force =    -0.07159931   -0.06587071  171.10812462
     atom   31 type  1   force =     0.03306407    1.27406519   63.06913984
     atom   32 type  1   force =    -0.03306407    1.27406519   63.06913984
     atom   33 type  2   force =    -0.00000000    0.11652588  175.21463742
     atom   34 type  2   force =    -0.00000000    0.11925143  172.56089622
     atom   35 type  1   force =     0.03677762   -1.22988976   63.36845475
     atom   36 type  1   force =    -0.03677762   -1.22988976   63.36845475
     atom   37 type  1   force =    -0.00000000   -0.81101602   91.36898232
     atom   38 type  1   force =    -0.00000000   -0.80902672   91.37140332
     atom   39 type  1   force =    -0.00000000    0.07042692  101.89561401
     atom   40 type  1   force =     0.00000000    0.07241220  101.91747884
     atom   41 type  3   force =     0.00000000    0.64863261  -18.49237002
     atom   42 type  3   force =    -0.00000000    0.64873958   18.49271832
     atom   43 type  3   force =    -0.00000000    0.64925185  -18.49312087
     atom   44 type  3   force =    -0.00000000    0.64935849   18.49346932
     The local contribution  to forces
     atom    1 type  1   force =     0.00000000   -0.03053771  100.57811479
     atom    2 type  1   force =    -0.00000000   -0.03281848  100.58013406
     atom    3 type  1   force =     0.00000000    0.31594547   92.39303167
     atom    4 type  1   force =     0.00000000    0.31597768   92.39521956
     atom    5 type  2   force =    -0.07280395    0.04447994  171.11428402
     atom    6 type  2   force =     0.07280395    0.04447994  171.11428402
     atom    7 type  1   force =    -0.03422875   -1.15883745   63.15823867
     atom    8 type  1   force =     0.03422875   -1.15883745   63.15823867
     atom    9 type  2   force =     0.00000000   -0.09383226  175.22524496
     atom   10 type  2   force =     0.00000000   -0.09689994  172.56487955
     atom   11 type  1   force =    -0.03754467    1.12944688   63.43074511
     atom   12 type  1   force =     0.03754467    1.12944688   63.43074511
     atom   13 type  1   force =    -0.00000000    0.02782416   38.40676126
     atom   14 type  1   force =     0.00000000    0.03293298   38.31266010
     atom   15 type  1   force =     0.00000000    0.01193321   27.28115516
     atom   16 type  1   force =     0.00000000    0.01180593   26.52414264
     atom   17 type  2   force =    -0.00000000   -0.12953841   -0.00583416
     atom   18 type  2   force =     0.00000000   -0.11693374   -0.00581935
     atom   19 type  1   force =    -0.26371396    0.40357963   -0.00246813
     atom   20 type  1   force =     0.26371396    0.40357963   -0.00246813
     atom   21 type  2   force =     0.11379046    0.05572722   -0.00609729
     atom   22 type  2   force =    -0.11379046    0.05572722   -0.00609729
     atom   23 type  1   force =    -0.27013547   -0.43261381   -0.00246682
     atom   24 type  1   force =     0.27013547   -0.43261381   -0.00246682
     atom   25 type  1   force =     0.00000000    0.01193248  -27.28292152
     atom   26 type  1   force =    -0.00000000    0.01180536  -26.52595776
     atom   27 type  1   force =    -0.00000000    0.02782254  -38.40853783
     atom   28 type  1   force =     0.00000000    0.03293129  -38.31443618
     atom   29 type  2   force =    -0.07280410    0.04448560 -171.12040602
     atom   30 type  2   force =     0.07280410    0.04448560 -171.12040602
     atom   31 type  1   force =    -0.03422907   -1.15879955  -63.16070692
     atom   32 type  1   force =     0.03422907   -1.15879955  -63.16070692
     atom   33 type  2   force =     0.00000000   -0.09383782 -175.23097556
     atom   34 type  2   force =    -0.00000000   -0.09690518 -172.57065236
     atom   35 type  1   force =    -0.03754503    1.12940843  -63.43321517
     atom   36 type  1   force =     0.03754503    1.12940843  -63.43321517
     atom   37 type  1   force =     0.00000000    0.31599112  -92.39674531
     atom   38 type  1   force =     0.00000000    0.31602322  -92.39893386
     atom   39 type  1   force =    -0.00000000   -0.03054186 -100.57949428
     atom   40 type  1   force =     0.00000000   -0.03282250 -100.58152494
     atom   41 type  3   force =    -0.00000000   -0.62853802   18.42149259
     atom   42 type  3   force =    -0.00000000   -0.62853802  -18.42149259
     atom   43 type  3   force =     0.00000000   -0.62932188   18.42251652
     atom   44 type  3   force =     0.00000000   -0.62932188  -18.42251652
     The core correction contribution to forces
     atom    1 type  1   force =    -0.00000000    0.00005811   -0.01007048
     atom    2 type  1   force =     0.00000000    0.00005715   -0.01034679
     atom    3 type  1   force =     0.00000000   -0.00466432    0.00882557
     atom    4 type  1   force =     0.00000000   -0.00463973    0.00882039
     atom    5 type  2   force =     0.00000000    0.00000000    0.00000000
     atom    6 type  2   force =     0.00000000    0.00000000    0.00000000
     atom    7 type  1   force =     0.00001309   -0.00122293    0.00097329
     atom    8 type  1   force =    -0.00001309   -0.00122293    0.00097329
     atom    9 type  2   force =     0.00000000    0.00000000    0.00000000
     atom   10 type  2   force =     0.00000000    0.00000000    0.00000000
     atom   11 type  1   force =     0.00001639    0.00132030    0.00084667
     atom   12 type  1   force =    -0.00001639    0.00132030    0.00084667
     atom   13 type  1   force =     0.00000000   -0.00018597    0.00020250
     atom   14 type  1   force =     0.00000000   -0.00018591    0.00022251
     atom   15 type  1   force =     0.00000000    0.00004590   -0.00279001
     atom   16 type  1   force =    -0.00000000    0.00003914   -0.00183665
     atom   17 type  2   force =     0.00000000    0.00000000    0.00000000
     atom   18 type  2   force =     0.00000000    0.00000000    0.00000000
     atom   19 type  1   force =     0.00020250    0.00054819   -0.00000216
     atom   20 type  1   force =    -0.00020250    0.00054819   -0.00000216
     atom   21 type  2   force =     0.00000000    0.00000000    0.00000000
     atom   22 type  2   force =     0.00000000    0.00000000    0.00000000
     atom   23 type  1   force =     0.00020637   -0.00054311   -0.00000215
     atom   24 type  1   force =    -0.00020637   -0.00054311   -0.00000215
     atom   25 type  1   force =    -0.00000000    0.00004590    0.00278798
     atom   26 type  1   force =    -0.00000000    0.00003915    0.00183454
     atom   27 type  1   force =     0.00000000   -0.00018601   -0.00020455
     atom   28 type  1   force =     0.00000000   -0.00018594   -0.00022454
     atom   29 type  2   force =     0.00000000    0.00000000    0.00000000
     atom   30 type  2   force =     0.00000000    0.00000000    0.00000000
     atom   31 type  1   force =     0.00001311   -0.00122283   -0.00097504
     atom   32 type  1   force =    -0.00001311   -0.00122283   -0.00097504
     atom   33 type  2   force =     0.00000000    0.00000000    0.00000000
     atom   34 type  2   force =     0.00000000    0.00000000    0.00000000
     atom   35 type  1   force =     0.00001641    0.00132023   -0.00084843
     atom   36 type  1   force =    -0.00001641    0.00132023   -0.00084843
     atom   37 type  1   force =    -0.00000000   -0.00466521   -0.00883142
     atom   38 type  1   force =    -0.00000000   -0.00464062   -0.00882624
     atom   39 type  1   force =     0.00000000    0.00005808    0.01006883
     atom   40 type  1   force =    -0.00000000    0.00005712    0.01034495
     atom   41 type  3   force =     0.00000000    0.00000000    0.00000000
     atom   42 type  3   force =     0.00000000    0.00000000    0.00000000
     atom   43 type  3   force =     0.00000000    0.00000000    0.00000000
     atom   44 type  3   force =     0.00000000    0.00000000    0.00000000
     The Hubbard contrib.    to forces
     atom    1 type  1   force =     0.00000000    0.00000000    0.00000000
     atom    2 type  1   force =     0.00000000    0.00000000    0.00000000
     atom    3 type  1   force =     0.00000000    0.00000000    0.00000000
     atom    4 type  1   force =     0.00000000    0.00000000    0.00000000
     atom    5 type  2   force =     0.00000000    0.00000000    0.00000000
     atom    6 type  2   force =     0.00000000    0.00000000    0.00000000
     atom    7 type  1   force =     0.00000000    0.00000000    0.00000000
     atom    8 type  1   force =     0.00000000    0.00000000    0.00000000
     atom    9 type  2   force =     0.00000000    0.00000000    0.00000000
     atom   10 type  2   force =     0.00000000    0.00000000    0.00000000
     atom   11 type  1   force =     0.00000000    0.00000000    0.00000000
     atom   12 type  1   force =     0.00000000    0.00000000    0.00000000
     atom   13 type  1   force =     0.00000000    0.00000000    0.00000000
     atom   14 type  1   force =     0.00000000    0.00000000    0.00000000
     atom   15 type  1   force =     0.00000000    0.00000000    0.00000000
     atom   16 type  1   force =     0.00000000    0.00000000    0.00000000
     atom   17 type  2   force =     0.00000000    0.00000000    0.00000000
     atom   18 type  2   force =     0.00000000    0.00000000    0.00000000
     atom   19 type  1   force =     0.00000000    0.00000000    0.00000000
     atom   20 type  1   force =     0.00000000    0.00000000    0.00000000
     atom   21 type  2   force =     0.00000000    0.00000000    0.00000000
     atom   22 type  2   force =     0.00000000    0.00000000    0.00000000
     atom   23 type  1   force =     0.00000000    0.00000000    0.00000000
     atom   24 type  1   force =     0.00000000    0.00000000    0.00000000
     atom   25 type  1   force =     0.00000000    0.00000000    0.00000000
     atom   26 type  1   force =     0.00000000    0.00000000    0.00000000
     atom   27 type  1   force =     0.00000000    0.00000000    0.00000000
     atom   28 type  1   force =     0.00000000    0.00000000    0.00000000
     atom   29 type  2   force =     0.00000000    0.00000000    0.00000000
     atom   30 type  2   force =     0.00000000    0.00000000    0.00000000
     atom   31 type  1   force =     0.00000000    0.00000000    0.00000000
     atom   32 type  1   force =     0.00000000    0.00000000    0.00000000
     atom   33 type  2   force =     0.00000000    0.00000000    0.00000000
     atom   34 type  2   force =     0.00000000    0.00000000    0.00000000
     atom   35 type  1   force =     0.00000000    0.00000000    0.00000000
     atom   36 type  1   force =     0.00000000    0.00000000    0.00000000
     atom   37 type  1   force =     0.00000000    0.00000000    0.00000000
     atom   38 type  1   force =     0.00000000    0.00000000    0.00000000
     atom   39 type  1   force =     0.00000000    0.00000000    0.00000000
     atom   40 type  1   force =     0.00000000    0.00000000    0.00000000
     atom   41 type  3   force =     0.00000000    0.00000000    0.00000000
     atom   42 type  3   force =     0.00000000    0.00000000    0.00000000
     atom   43 type  3   force =     0.00000000    0.00000000    0.00000000
     atom   44 type  3   force =     0.00000000    0.00000000    0.00000000
     The SCF correction term to forces
     atom    1 type  1   force =     0.00000000   -0.00000248   -0.00000203
     atom    2 type  1   force =    -0.00000000   -0.00000291   -0.00000465
     atom    3 type  1   force =     0.00000000    0.00000378   -0.00001360
     atom    4 type  1   force =    -0.00000000    0.00000404   -0.00001500
     atom    5 type  2   force =     0.00000143    0.00000298   -0.00002506
     atom    6 type  2   force =    -0.00000143    0.00000298   -0.00002506
     atom    7 type  1   force =    -0.00000303   -0.00000763   -0.00000584
     atom    8 type  1   force =     0.00000303   -0.00000763   -0.00000584
     atom    9 type  2   force =     0.00000000   -0.00000408   -0.00001283
     atom   10 type  2   force =    -0.00000000   -0.00000409    0.00000176
     atom   11 type  1   force =    -0.00000302    0.00000634   -0.00000414
     atom   12 type  1   force =     0.00000302    0.00000634   -0.00000414
     atom   13 type  1   force =    -0.00000000    0.00000027   -0.00001378
     atom   14 type  1   force =     0.00000000    0.00000037   -0.00000563
     atom   15 type  1   force =    -0.00000000   -0.00000025    0.00000240
     atom   16 type  1   force =     0.00000000   -0.00000037    0.00000720
     atom   17 type  2   force =    -0.00000000    0.00000049    0.00001000
     atom   18 type  2   force =     0.00000000    0.00000055    0.00000994
     atom   19 type  1   force =     0.00000730    0.00000806    0.00000365
     atom   20 type  1   force =    -0.00000730    0.00000806    0.00000365
     atom   21 type  2   force =     0.00000717   -0.00000016    0.00000952
     atom   22 type  2   force =    -0.00000717   -0.00000016    0.00000952
     atom   23 type  1   force =     0.00000728   -0.00000806    0.00000366
     atom   24 type  1   force =    -0.00000728   -0.00000806    0.00000366
     atom   25 type  1   force =     0.00000000   -0.00000025    0.00000351
     atom   26 type  1   force =    -0.00000000   -0.00000037   -0.00000116
     atom   27 type  1   force =     0.00000000    0.00000027    0.00001805
     atom   28 type  1   force =    -0.00000000    0.00000038    0.00000989
     atom   29 type  2   force =     0.00000134    0.00000299    0.00002461
     atom   30 type  2   force =    -0.00000134    0.00000299    0.00002461
     atom   31 type  1   force =    -0.00000307   -0.00000792    0.00000581
     atom   32 type  1   force =     0.00000307   -0.00000792    0.00000581
     atom   33 type  2   force =     0.00000000   -0.00000409    0.00001127
     atom   34 type  2   force =    -0.00000000   -0.00000410   -0.00000306
     atom   35 type  1   force =    -0.00000307    0.00000663    0.00000409
     atom   36 type  1   force =     0.00000307    0.00000663    0.00000409
     atom   37 type  1   force =     0.00000000    0.00000377    0.00001064
     atom   38 type  1   force =    -0.00000000    0.00000403    0.00001205
     atom   39 type  1   force =     0.00000000   -0.00000247   -0.00000090
     atom   40 type  1   force =    -0.00000000   -0.00000291    0.00000175
     atom   41 type  3   force =     0.00000000   -0.00000006    0.00000084
     atom   42 type  3   force =     0.00000000   -0.00000006   -0.00000124
     atom   43 type  3   force =    -0.00000000   -0.00000025    0.00000099
     atom   44 type  3   force =    -0.00000000   -0.00000025   -0.00000138

     Total force =     0.240938     Total SCF correction =     0.000078

     BFGS Geometry Optimization
     Energy error            =      0.0E+00 Ry
     Gradient error          =      7.4E-02 Ry/Bohr

     number of scf cycles    =   1
     number of bfgs steps    =   0

     energy             new  =   -3432.5631303699 Ry

     new trust radius        =       0.0737284382 bohr
     new conv_thr            =       0.0000000010 Ry


ATOMIC_POSITIONS (crystal)
O             0.0000000000        0.5054346702        0.2732628076
O             0.5000000000        0.5054818265        0.2744531368
O             0.0000000000        0.0061737099        0.3040345197
O             0.5000000000        0.0062021955        0.3040766329
Ru            0.2499574055        0.0072702627        0.3588192873
Ru            0.7500425945        0.0072702627        0.3588192873
O             0.2503848211        0.3174376393        0.3585272226
O             0.7496151789        0.3174376393        0.3585272226
Ru            0.0000000000        0.5072154707        0.3517337270
Ru            0.5000000000        0.5072062441        0.3530777951
O             0.2503809151        0.6968323215        0.3582129225
O             0.7496190849        0.6968323215        0.3582129225
O             0.0000000000        0.0062878525        0.4119031950
O             0.5000000000        0.0062471742        0.4119748959
O             0.0000000000        0.5080830976        0.4420879742
O             0.5000000000        0.5080566317        0.4455493570
Ru            0.0000000000        0.0082021839        0.5000010000
Ru            0.5000000000        0.0082058227        0.5000010000
O             0.2491949965        0.1955676636        0.5000010000
O             0.7508050035        0.1955676636        0.5000010000
Ru            0.2469055719        0.5081387352        0.5000010000
Ru            0.7530944281        0.5081387352        0.5000010000
O             0.2491491341        0.8206328829        0.5000010000
O             0.7508508659        0.8206328829        0.5000010000
O             0.0000000000        0.5080830976        0.5579130258
O             0.5000000000        0.5080566317        0.5544516430
O             0.0000000000        0.0062878525        0.5880978050
O             0.5000000000        0.0062471742        0.5880261041
Ru            0.2499574055        0.0072702627        0.6411817127
Ru            0.7500425945        0.0072702627        0.6411817127
O             0.2503848211        0.3174376393        0.6414737774
O             0.7496151789        0.3174376393        0.6414737774
Ru            0.0000000000        0.5072154707        0.6482672730
Ru            0.5000000000        0.5072062441        0.6469232049
O             0.2503809151        0.6968323215        0.6417880775
O             0.7496190849        0.6968323215        0.6417880775
O             0.0000000000        0.0061737099        0.6959674803
O             0.5000000000        0.0062021955        0.6959253671
O             0.0000000000        0.5054346702        0.7267381924
O             0.5000000000        0.5054818265        0.7255478632
H             0.0000000000        0.0432531121        0.2608582364
H             0.0000000000        0.0432531121        0.7391417636
H             0.5000000000        0.0431672833        0.2608951467
H             0.5000000000        0.0431672833        0.7391048533



     Writing config-only to output data dir /storage/home/mgm6007/ixd4/Maria/StrainJin_Files/RuO2-110-0-23/RuO2-110-0-23.save/
     NEW-OLD atomic charge density approx. for the potential

     Check: negative core charge=   -0.000001

     negative rho (up, down):  1.455E-04 0.000E+00

     add environment contribution to local potential
     Polarization accuracy = 4.4E-12, # of iterations =  41

     total cpu time spent up to now is    11886.9 secs

     per-process dynamical memory:   202.8 Mb

     Self-consistent Calculation

     iteration #  1     ecut=    50.00 Ry     beta= 0.70
     Davidson diagonalization with overlap
     ethr =  1.00E-06,  avg # of iterations = 14.0

     negative rho (up, down):  6.954E-04 0.000E+00

     add environment contribution to local potential
     Polarization accuracy = 6.5E-12, # of iterations =  41

     total cpu time spent up to now is    12179.4 secs

     total energy              =   -3432.58579756 Ry
     estimated scf accuracy    <       0.06418117 Ry
     electrostatic embedding   =      -0.07743375 Ry
     cavitation energy         =       0.02106601 Ry
     PV energy                 =      -0.07969129 Ry
     correction to one-el term =     185.17355081 Ry

     iteration #  2     ecut=    50.00 Ry     beta= 0.70
     Davidson diagonalization with overlap
     ethr =  1.76E-05,  avg # of iterations =  2.0

     negative rho (up, down):  5.977E-04 0.000E+00

     total cpu time spent up to now is    12472.5 secs

     total energy              =   -3432.58885097 Ry
     estimated scf accuracy    <       0.14037726 Ry
     electrostatic embedding   =      -0.07889854 Ry
     cavitation energy         =       0.02108437 Ry
     PV energy                 =      -0.07963048 Ry
     correction to one-el term =     185.48874949 Ry

     iteration #  3     ecut=    50.00 Ry     beta= 0.70
     Davidson diagonalization with overlap
     ethr =  1.76E-05,  avg # of iterations =  1.0

     negative rho (up, down):  8.049E-04 0.000E+00

     add environment contribution to local potential
     Polarization accuracy = 5.7E-12, # of iterations =  41

     total cpu time spent up to now is    12771.8 secs

     total energy              =   -3432.59436830 Ry
     estimated scf accuracy    <       0.00225983 Ry
     electrostatic embedding   =      -0.07897728 Ry
     cavitation energy         =       0.02106779 Ry
     PV energy                 =      -0.07966368 Ry
     correction to one-el term =     185.48887250 Ry

     iteration #  4     ecut=    50.00 Ry     beta= 0.70
     Davidson diagonalization with overlap
     ethr =  6.21E-07,  avg # of iterations =  2.0

     negative rho (up, down):  8.896E-04 0.000E+00

     add environment contribution to local potential
     Polarization accuracy = 5.4E-12, # of iterations =  41

     total cpu time spent up to now is    13089.8 secs

     total energy              =   -3432.59444956 Ry
     estimated scf accuracy    <       0.00165983 Ry
     electrostatic embedding   =      -0.07984978 Ry
     cavitation energy         =       0.02106287 Ry
     PV energy                 =      -0.07966797 Ry
     correction to one-el term =     185.34393878 Ry

     iteration #  5     ecut=    50.00 Ry     beta= 0.70
     Davidson diagonalization with overlap
     ethr =  4.56E-07,  avg # of iterations =  1.0

     negative rho (up, down):  8.758E-04 0.000E+00

     add environment contribution to local potential
     Polarization accuracy = 5.4E-12, # of iterations =  41

     total cpu time spent up to now is    13384.2 secs

     total energy              =   -3432.59449901 Ry
     estimated scf accuracy    <       0.00048582 Ry
     electrostatic embedding   =      -0.08051001 Ry
     cavitation energy         =       0.02106107 Ry
     PV energy                 =      -0.07967142 Ry
     correction to one-el term =     185.32299352 Ry

     iteration #  6     ecut=    50.00 Ry     beta= 0.70
     Davidson diagonalization with overlap
     ethr =  1.33E-07,  avg # of iterations =  1.0

     negative rho (up, down):  8.355E-04 0.000E+00

     add environment contribution to local potential
     Polarization accuracy = 5.1E-12, # of iterations =  41

     total cpu time spent up to now is    13669.2 secs

     total energy              =   -3432.59453364 Ry
     estimated scf accuracy    <       0.00013247 Ry
     electrostatic embedding   =      -0.08121222 Ry
     cavitation energy         =       0.02105802 Ry
     PV energy                 =      -0.07967847 Ry
     correction to one-el term =     185.26614157 Ry

     iteration #  7     ecut=    50.00 Ry     beta= 0.70
     Davidson diagonalization with overlap
     ethr =  3.64E-08,  avg # of iterations =  1.0

     negative rho (up, down):  6.699E-04 0.000E+00

     add environment contribution to local potential
     Polarization accuracy = 4.5E-12, # of iterations =  41

     total cpu time spent up to now is    13913.0 secs

     total energy              =   -3432.59453915 Ry
     estimated scf accuracy    <       0.00002215 Ry
     electrostatic embedding   =      -0.08154389 Ry
     cavitation energy         =       0.02105743 Ry
     PV energy                 =      -0.07968013 Ry
     correction to one-el term =     185.23814356 Ry

     iteration #  8     ecut=    50.00 Ry     beta= 0.70
     Davidson diagonalization with overlap
     ethr =  6.08E-09,  avg # of iterations =  3.0

     negative rho (up, down):  5.538E-04 0.000E+00

     add environment contribution to local potential
     Polarization accuracy = 4.2E-12, # of iterations =  41

     total cpu time spent up to now is    14209.7 secs

     total energy              =   -3432.59454245 Ry
     estimated scf accuracy    <       0.00002064 Ry
     electrostatic embedding   =      -0.08203599 Ry
     cavitation energy         =       0.02105727 Ry
     PV energy                 =      -0.07968392 Ry
     correction to one-el term =     185.16979055 Ry

     iteration #  9     ecut=    50.00 Ry     beta= 0.70
     Davidson diagonalization with overlap
     ethr =  5.67E-09,  avg # of iterations =  2.0

     negative rho (up, down):  4.220E-04 0.000E+00

     add environment contribution to local potential
     Polarization accuracy = 4.0E-12, # of iterations =  41

     total cpu time spent up to now is    14473.9 secs

     total energy              =   -3432.59454398 Ry
     estimated scf accuracy    <       0.00000395 Ry
     electrostatic embedding   =      -0.08235568 Ry
     cavitation energy         =       0.02105767 Ry
     PV energy                 =      -0.07968537 Ry
     correction to one-el term =     185.12708469 Ry

     iteration # 10     ecut=    50.00 Ry     beta= 0.70
     Davidson diagonalization with overlap
     ethr =  1.09E-09,  avg # of iterations =  4.0

     negative rho (up, down):  2.988E-04 0.000E+00

     add environment contribution to local potential
     Polarization accuracy = 4.1E-12, # of iterations =  41

     total cpu time spent up to now is    14715.3 secs

     total energy              =   -3432.59454466 Ry
     estimated scf accuracy    <       0.00000081 Ry
     electrostatic embedding   =      -0.08264840 Ry
     cavitation energy         =       0.02105842 Ry
     PV energy                 =      -0.07968614 Ry
     correction to one-el term =     185.08442517 Ry

     iteration # 11     ecut=    50.00 Ry     beta= 0.70
     Davidson diagonalization with overlap
     ethr =  2.21E-10,  avg # of iterations =  4.0

     negative rho (up, down):  2.271E-04 0.000E+00

     add environment contribution to local potential
     Polarization accuracy = 3.8E-12, # of iterations =  41

     total cpu time spent up to now is    14996.6 secs

     total energy              =   -3432.59454476 Ry
     estimated scf accuracy    <       0.00000029 Ry
     electrostatic embedding   =      -0.08289312 Ry
     cavitation energy         =       0.02105919 Ry
     PV energy                 =      -0.07968628 Ry
     correction to one-el term =     185.04657832 Ry

     iteration # 12     ecut=    50.00 Ry     beta= 0.70
     Davidson diagonalization with overlap
     ethr =  8.02E-11,  avg # of iterations =  3.0

     negative rho (up, down):  1.891E-04 0.000E+00

     add environment contribution to local potential
     Polarization accuracy = 3.8E-12, # of iterations =  41

     total cpu time spent up to now is    15229.3 secs

     total energy              =   -3432.59454472 Ry
     estimated scf accuracy    <       0.00000018 Ry
     electrostatic embedding   =      -0.08302233 Ry
     cavitation energy         =       0.02105963 Ry
     PV energy                 =      -0.07968576 Ry
     correction to one-el term =     185.02617891 Ry

     iteration # 13     ecut=    50.00 Ry     beta= 0.70
     Davidson diagonalization with overlap
     ethr =  5.02E-11,  avg # of iterations =  2.0

     negative rho (up, down):  1.695E-04 0.000E+00

     add environment contribution to local potential
     Polarization accuracy = 3.8E-12, # of iterations =  41

     total cpu time spent up to now is    15472.9 secs

     total energy              =   -3432.59454468 Ry
     estimated scf accuracy    <       0.00000006 Ry
     electrostatic embedding   =      -0.08310446 Ry
     cavitation energy         =       0.02105982 Ry
     PV energy                 =      -0.07968549 Ry
     correction to one-el term =     185.01361705 Ry

     iteration # 14     ecut=    50.00 Ry     beta= 0.70
     Davidson diagonalization with overlap
     ethr =  1.72E-11,  avg # of iterations =  3.0

     negative rho (up, down):  1.579E-04 0.000E+00

     add environment contribution to local potential
     Polarization accuracy = 3.8E-12, # of iterations =  41

     total cpu time spent up to now is    15733.2 secs

     total energy              =   -3432.59454465 Ry
     estimated scf accuracy    <       0.00000001 Ry
     electrostatic embedding   =      -0.08312658 Ry
     cavitation energy         =       0.02105985 Ry
     PV energy                 =      -0.07968511 Ry
     correction to one-el term =     185.00928218 Ry

     iteration # 15     ecut=    50.00 Ry     beta= 0.70
     Davidson diagonalization with overlap
     ethr =  3.70E-12,  avg # of iterations =  5.0

     negative rho (up, down):  1.506E-04 0.000E+00

     add environment contribution to local potential
     Polarization accuracy = 3.8E-12, # of iterations =  41

     total cpu time spent up to now is    16027.3 secs

     total energy              =   -3432.59454464 Ry
     estimated scf accuracy    <          1.6E-09 Ry
     electrostatic embedding   =      -0.08313893 Ry
     cavitation energy         =       0.02105983 Ry
     PV energy                 =      -0.07968487 Ry
     correction to one-el term =     185.00672397 Ry

     iteration # 16     ecut=    50.00 Ry     beta= 0.70
     Davidson diagonalization with overlap
     ethr =  4.50E-13,  avg # of iterations =  5.0

     negative rho (up, down):  1.484E-04 0.000E+00

     the potential shift due to the Gaussian-smeared nuclei is    -1.3353 ev

     total cpu time spent up to now is    16275.6 secs

     End of self-consistent calculation

          k = 0.2500 0.2752 0.0000 ( 34780 PWs)   bands (ev):

   -77.8563 -77.8436 -77.8195 -77.8069 -77.1407 -77.1371 -77.1286 -77.1250
   -76.9658 -76.9620 -76.9569 -76.9369 -48.3473 -48.3347 -48.2893 -48.2767
   -47.8422 -47.8295 -47.7549 -47.7422 -47.5858 -47.5736 -47.5701 -47.5579
   -47.4469 -47.4342 -47.4134 -47.4008 -47.3272 -47.3235 -47.1258 -47.1088
   -47.0546 -47.0416 -47.0384 -46.9814 -46.9694 -46.9487 -46.9115 -46.8999
   -46.8991 -46.8877 -46.8672 -46.8172 -46.7920 -46.7844 -46.7790 -46.7727
   -23.7710 -23.6854 -23.4456 -23.3099 -23.2845 -23.2811 -23.2632 -23.1169
   -23.0882 -22.9922 -22.5286 -22.4869 -22.4612 -22.4494 -22.3925 -22.3205
   -22.2879 -22.2034 -22.1683 -22.1081 -22.0772 -22.0566 -22.0174 -21.8371
   -21.4715 -21.3397 -21.3162 -21.2456 -12.1535 -11.9220 -11.8730 -11.8127
   -11.6929 -11.5210 -11.4550 -11.2247 -11.1907 -11.0761 -10.9229 -10.8930
   -10.8802 -10.8550 -10.8158 -10.6731 -10.6305 -10.5360 -10.3567 -10.3377
   -10.3307 -10.2576 -10.1839 -10.0647  -9.9941  -9.8526  -9.7783  -9.7546
    -9.6084  -9.2842  -9.2302  -9.1547  -9.0866  -9.0248  -9.0192  -8.9630
    -8.9615  -8.8124  -8.7565  -8.7050  -8.6900  -8.5890  -8.5862  -8.4352
    -8.3888  -8.1508  -7.9990  -7.9384  -7.9104  -7.9013  -7.8581  -7.8212
    -7.8139  -7.7471  -7.7351  -7.6905  -7.6854  -7.5766  -7.5413  -7.5298
    -7.4733  -7.3997  -7.2641  -7.2158  -7.1380  -7.0609  -6.9311  -6.7807
    -6.7565  -6.6542  -6.5739  -6.5268  -6.4766  -6.3352  -6.3010  -6.2507
    -6.2463  -6.1299  -6.1002  -6.0063  -5.9643  -5.8918  -5.8740  -5.6679
    -4.8429  -4.8244  -4.5164  -4.4894  -4.4624  -4.4475  -4.4022  -4.3706
    -4.3674  -4.2790  -4.2727  -4.2531  -4.1823  -4.1470  -4.1030  -4.0217
    -3.9404  -3.8869  -3.8536  -3.8422  -3.7788  -3.7672  -3.4196  -3.3789
    -3.3242  -3.2883  -3.2244  -3.1356  -2.8904  -2.8128  -2.8077  -2.7345
    -2.6510  -2.6372  -2.3899  -2.3088  -1.7378  -1.6486  -1.6353  -1.4339
    -1.3270  -1.2048  -0.6562  -0.3019  -0.1977   0.0064   0.0218   0.0500
     0.1665   0.4015   0.4265   0.5464   0.7377   0.7912   0.9741   1.1709
     1.1992   1.2768

     the Fermi energy is    -3.6183 ev

!    total energy              =   -3432.59454462 Ry
     estimated scf accuracy    <          7.8E-10 Ry
     smearing contrib. (-TS)   =       0.06096352 Ry
     internal energy E=F+TS    =   -3432.65550813 Ry

     The total energy is F=E-TS. E is the sum of the following terms:
     one-electron contribution =  -25699.74321391 Ry
     hartree contribution      =   12836.83215913 Ry
     xc contribution           =    -446.49798569 Ry
[...]
     atom   40 type  1   force =    -0.00000000    0.00241886  101.77997164
     atom   41 type  3   force =     0.00000000    0.00326809  -18.52920658
     atom   42 type  3   force =     0.00000000    0.00326855   18.52957587
     atom   43 type  3   force =     0.00000000    0.00247386  -18.52881797
     atom   44 type  3   force =     0.00000000    0.00247420   18.52918724
     The local contribution  to forces
     atom    1 type  1   force =     0.00000000   -0.00192216  100.46330275
     atom    2 type  1   force =     0.00000000   -0.00185609  100.46407579
     atom    3 type  1   force =     0.00000000   -0.00066623   92.36795273
     atom    4 type  1   force =     0.00000000   -0.00065133   92.36909763
     atom    5 type  2   force =    -0.00052415   -0.00172415  171.96774064
     atom    6 type  2   force =     0.00052415   -0.00172415  171.96774064
     atom    7 type  1   force =     0.00104121    0.06750966   62.95140829
     atom    8 type  1   force =    -0.00104121    0.06750966   62.95140829
     atom    9 type  2   force =    -0.00000000    0.00641767  174.40290489
     atom   10 type  2   force =     0.00000000    0.00400450  174.39993280
     atom   11 type  1   force =     0.00054319   -0.06672286   62.93173878
     atom   12 type  1   force =    -0.00054319   -0.06672286   62.93173878
     atom   13 type  1   force =    -0.00000000   -0.00191475   38.66702030
     atom   14 type  1   force =     0.00000000   -0.00096374   38.66688268
     atom   15 type  1   force =    -0.00000000   -0.00025134   26.83256147
     atom   16 type  1   force =    -0.00000000    0.00031042   26.83300069
     atom   17 type  2   force =    -0.00000000    0.00902035   -0.00585300
     atom   18 type  2   force =     0.00000000    0.00210216   -0.00585291
     atom   19 type  1   force =    -0.00110517   -0.96603559   -0.00246632
     atom   20 type  1   force =     0.00110517   -0.96603559   -0.00246632
     atom   21 type  2   force =     0.00253426   -0.00396503   -0.00607131
     atom   22 type  2   force =    -0.00253426   -0.00396503   -0.00607131
     atom   23 type  1   force =     0.00040906    0.96685031   -0.00246630
     atom   24 type  1   force =    -0.00040906    0.96685031   -0.00246630
     atom   25 type  1   force =    -0.00000000   -0.00025130  -26.83436221
     atom   26 type  1   force =     0.00000000    0.00031045  -26.83480138
     atom   27 type  1   force =    -0.00000000   -0.00191475  -38.66879465
     atom   28 type  1   force =    -0.00000000   -0.00096375  -38.66865704
     atom   29 type  2   force =    -0.00052418   -0.00172412 -171.97383427
     atom   30 type  2   force =     0.00052418   -0.00172412 -171.97383427
     atom   31 type  1   force =     0.00104122    0.06754472  -62.95387293
     atom   32 type  1   force =    -0.00104122    0.06754472  -62.95387293
     atom   33 type  2   force =    -0.00000000    0.00641788 -174.40869113
     atom   34 type  2   force =     0.00000000    0.00400466 -174.40571905
     atom   35 type  1   force =     0.00054317   -0.06675789  -62.93420334
     atom   36 type  1   force =    -0.00054317   -0.06675789  -62.93420334
     atom   37 type  1   force =    -0.00000000   -0.00066617  -92.37166687
     atom   38 type  1   force =     0.00000000   -0.00065129  -92.37281162
     atom   39 type  1   force =    -0.00000000   -0.00192193 -100.46469023
     atom   40 type  1   force =     0.00000000   -0.00185588 -100.46546328
     atom   41 type  3   force =     0.00000000   -0.00321373   18.46710610
     atom   42 type  3   force =     0.00000000   -0.00321373  -18.46710610
     atom   43 type  3   force =    -0.00000000   -0.00244107   18.46677075
     atom   44 type  3   force =    -0.00000000   -0.00244107  -18.46677075
     The core correction contribution to forces
     atom    1 type  1   force =     0.00000000    0.00000598   -0.01042709
     atom    2 type  1   force =     0.00000000    0.00000468   -0.01042683
     atom    3 type  1   force =    -0.00000000   -0.00002361    0.00968107
     atom    4 type  1   force =    -0.00000000   -0.00001626    0.00968030
     atom    5 type  2   force =     0.00000000    0.00000000    0.00000000
     atom    6 type  2   force =     0.00000000    0.00000000    0.00000000
     atom    7 type  1   force =    -0.00000016   -0.00042799    0.00122483
     atom    8 type  1   force =     0.00000016   -0.00042799    0.00122483
     atom    9 type  2   force =     0.00000000    0.00000000    0.00000000
     atom   10 type  2   force =     0.00000000    0.00000000    0.00000000
     atom   11 type  1   force =     0.00000054    0.00042834    0.00123128
     atom   12 type  1   force =    -0.00000054    0.00042834    0.00123128
     atom   13 type  1   force =     0.00000000    0.00000564    0.00013234
     atom   14 type  1   force =     0.00000000    0.00000081    0.00013306
     atom   15 type  1   force =    -0.00000000   -0.00000354   -0.00216935
     atom   16 type  1   force =     0.00000000   -0.00000236   -0.00217114
     atom   17 type  2   force =     0.00000000    0.00000000    0.00000000
     atom   18 type  2   force =     0.00000000    0.00000000    0.00000000
     atom   19 type  1   force =    -0.00000085   -0.00046709   -0.00000205
     atom   20 type  1   force =     0.00000085   -0.00046709   -0.00000205
     atom   21 type  2   force =     0.00000000    0.00000000    0.00000000
     atom   22 type  2   force =     0.00000000    0.00000000    0.00000000
     atom   23 type  1   force =    -0.00000106    0.00046733   -0.00000204
     atom   24 type  1   force =     0.00000106    0.00046733   -0.00000204
     atom   25 type  1   force =     0.00000000   -0.00000354    0.00216726
     atom   26 type  1   force =    -0.00000000   -0.00000236    0.00216906
     atom   27 type  1   force =    -0.00000000    0.00000564   -0.00013443
     atom   28 type  1   force =     0.00000000    0.00000081   -0.00013515
     atom   29 type  2   force =     0.00000000    0.00000000    0.00000000
     atom   30 type  2   force =     0.00000000    0.00000000    0.00000000
     atom   31 type  1   force =    -0.00000016   -0.00042794   -0.00122651
     atom   32 type  1   force =     0.00000016   -0.00042794   -0.00122651
     atom   33 type  2   force =     0.00000000    0.00000000    0.00000000
     atom   34 type  2   force =     0.00000000    0.00000000    0.00000000
     atom   35 type  1   force =     0.00000054    0.00042829   -0.00123296
     atom   36 type  1   force =    -0.00000054    0.00042829   -0.00123296
     atom   37 type  1   force =     0.00000000   -0.00002361   -0.00968701
     atom   38 type  1   force =    -0.00000000   -0.00001627   -0.00968625
     atom   39 type  1   force =    -0.00000000    0.00000599    0.01042527
     atom   40 type  1   force =    -0.00000000    0.00000468    0.01042501
     atom   41 type  3   force =     0.00000000    0.00000000    0.00000000
     atom   42 type  3   force =     0.00000000    0.00000000    0.00000000
     atom   43 type  3   force =     0.00000000    0.00000000    0.00000000
     atom   44 type  3   force =     0.00000000    0.00000000    0.00000000
     The Hubbard contrib.    to forces
     atom    1 type  1   force =     0.00000000    0.00000000    0.00000000
     atom    2 type  1   force =     0.00000000    0.00000000    0.00000000
     atom    3 type  1   force =     0.00000000    0.00000000    0.00000000
     atom    4 type  1   force =     0.00000000    0.00000000    0.00000000
     atom    5 type  2   force =     0.00000000    0.00000000    0.00000000
     atom    6 type  2   force =     0.00000000    0.00000000    0.00000000
     atom    7 type  1   force =     0.00000000    0.00000000    0.00000000
     atom    8 type  1   force =     0.00000000    0.00000000    0.00000000
     atom    9 type  2   force =     0.00000000    0.00000000    0.00000000
     atom   10 type  2   force =     0.00000000    0.00000000    0.00000000
     atom   11 type  1   force =     0.00000000    0.00000000    0.00000000
     atom   12 type  1   force =     0.00000000    0.00000000    0.00000000
     atom   13 type  1   force =     0.00000000    0.00000000    0.00000000
     atom   14 type  1   force =     0.00000000    0.00000000    0.00000000
     atom   15 type  1   force =     0.00000000    0.00000000    0.00000000
     atom   16 type  1   force =     0.00000000    0.00000000    0.00000000
     atom   17 type  2   force =     0.00000000    0.00000000    0.00000000
     atom   18 type  2   force =     0.00000000    0.00000000    0.00000000
     atom   19 type  1   force =     0.00000000    0.00000000    0.00000000
     atom   20 type  1   force =     0.00000000    0.00000000    0.00000000
     atom   21 type  2   force =     0.00000000    0.00000000    0.00000000
     atom   22 type  2   force =     0.00000000    0.00000000    0.00000000
     atom   23 type  1   force =     0.00000000    0.00000000    0.00000000
     atom   24 type  1   force =     0.00000000    0.00000000    0.00000000
     atom   25 type  1   force =     0.00000000    0.00000000    0.00000000
     atom   26 type  1   force =     0.00000000    0.00000000    0.00000000
     atom   27 type  1   force =     0.00000000    0.00000000    0.00000000
     atom   28 type  1   force =     0.00000000    0.00000000    0.00000000
     atom   29 type  2   force =     0.00000000    0.00000000    0.00000000
     atom   30 type  2   force =     0.00000000    0.00000000    0.00000000
     atom   31 type  1   force =     0.00000000    0.00000000    0.00000000
     atom   32 type  1   force =     0.00000000    0.00000000    0.00000000
     atom   33 type  2   force =     0.00000000    0.00000000    0.00000000
     atom   34 type  2   force =     0.00000000    0.00000000    0.00000000
     atom   35 type  1   force =     0.00000000    0.00000000    0.00000000
     atom   36 type  1   force =     0.00000000    0.00000000    0.00000000
     atom   37 type  1   force =     0.00000000    0.00000000    0.00000000
     atom   38 type  1   force =     0.00000000    0.00000000    0.00000000
     atom   39 type  1   force =     0.00000000    0.00000000    0.00000000
     atom   40 type  1   force =     0.00000000    0.00000000    0.00000000
     atom   41 type  3   force =     0.00000000    0.00000000    0.00000000
     atom   42 type  3   force =     0.00000000    0.00000000    0.00000000
     atom   43 type  3   force =     0.00000000    0.00000000    0.00000000
     atom   44 type  3   force =     0.00000000    0.00000000    0.00000000
     The SCF correction term to forces
     atom    1 type  1   force =     0.00000000   -0.00000032    0.00000155
     atom    2 type  1   force =    -0.00000000   -0.00000034    0.00000167
     atom    3 type  1   force =     0.00000000   -0.00000013    0.00000181
     atom    4 type  1   force =    -0.00000000   -0.00000018    0.00000190
     atom    5 type  2   force =     0.00000003    0.00000014    0.00000452
     atom    6 type  2   force =    -0.00000003    0.00000014    0.00000452
     atom    7 type  1   force =     0.00000004   -0.00000031    0.00000199
     atom    8 type  1   force =    -0.00000004   -0.00000031    0.00000199
     atom    9 type  2   force =    -0.00000000   -0.00000044    0.00000657
     atom   10 type  2   force =     0.00000000   -0.00000038    0.00000624
     atom   11 type  1   force =     0.00000006    0.00000032    0.00000215
     atom   12 type  1   force =    -0.00000006    0.00000032    0.00000215
     atom   13 type  1   force =     0.00000000    0.00000006    0.00000183
     atom   14 type  1   force =    -0.00000000    0.00000001    0.00000091
     atom   15 type  1   force =     0.00000000    0.00000000    0.00000201
     atom   16 type  1   force =     0.00000000    0.00000006    0.00000165
     atom   17 type  2   force =     0.00000000   -0.00000015   -0.00000002
     atom   18 type  2   force =    -0.00000000   -0.00000027   -0.00000002
     atom   19 type  1   force =    -0.00000088    0.00000071   -0.00000001
     atom   20 type  1   force =     0.00000088    0.00000071   -0.00000001
     atom   21 type  2   force =    -0.00000086    0.00000026   -0.00000002
     atom   22 type  2   force =     0.00000086    0.00000026   -0.00000002
     atom   23 type  1   force =    -0.00000083   -0.00000080   -0.00000001
     atom   24 type  1   force =     0.00000083   -0.00000080   -0.00000001
     atom   25 type  1   force =    -0.00000000    0.00000000   -0.00000202
     atom   26 type  1   force =    -0.00000000    0.00000006   -0.00000166
     atom   27 type  1   force =     0.00000000    0.00000006   -0.00000184
     atom   28 type  1   force =    -0.00000000    0.00000001   -0.00000092
     atom   29 type  2   force =     0.00000003    0.00000014   -0.00000452
     atom   30 type  2   force =    -0.00000003    0.00000014   -0.00000452
     atom   31 type  1   force =     0.00000004   -0.00000032   -0.00000199
     atom   32 type  1   force =    -0.00000004   -0.00000032   -0.00000199
     atom   33 type  2   force =    -0.00000000   -0.00000044   -0.00000657
     atom   34 type  2   force =     0.00000000   -0.00000038   -0.00000624
     atom   35 type  1   force =     0.00000006    0.00000032   -0.00000216
     atom   36 type  1   force =    -0.00000006    0.00000032   -0.00000216
     atom   37 type  1   force =     0.00000000   -0.00000013   -0.00000180
     atom   38 type  1   force =     0.00000000   -0.00000018   -0.00000189
     atom   39 type  1   force =     0.00000000   -0.00000032   -0.00000155
     atom   40 type  1   force =    -0.00000000   -0.00000034   -0.00000167
     atom   41 type  3   force =     0.00000000    0.00000001    0.00000024
     atom   42 type  3   force =    -0.00000000    0.00000001   -0.00000024
     atom   43 type  3   force =     0.00000000    0.00000001    0.00000023
     atom   44 type  3   force =    -0.00000000    0.00000001   -0.00000023

     Total force =     0.000253     Total SCF correction =     0.000018
     Energy error            =      1.6E-07 Ry
     Gradient error          =      8.7E-05 Ry/Bohr

     bfgs converged in  65 scf cycles and  63 bfgs steps
     (criteria: energy <  1.0E-04 Ry, force <  1.0E-04 Ry/Bohr)

     End of BFGS Geometry Optimization

     Final energy             =   -3432.5990379544 Ry

     File /storage/home/mgm6007/ixd4/Maria/StrainJin_Files/RuO2-110-0-23/RuO2-110-0-23.bfgs deleted, as requested
Begin final coordinates

ATOMIC_POSITIONS (crystal)
O             0.0000000000        0.5104912788        0.2738274620
O             0.5000000000        0.5104790015        0.2738313693
O             0.0000000000        0.0103244950        0.3045430880
O             0.5000000000        0.0103416597        0.3045348914
Ru            0.2500016267        0.0103718850        0.3588646502
Ru            0.7499983733        0.0103718850        0.3588646502
O             0.2500102548        0.3218317756        0.3590613271
O             0.7499897452        0.3218317756        0.3590613271
Ru            0.0000000000        0.5103746420        0.3521562138
Ru            0.5000000000        0.5103777159        0.3521590095
O             0.2499992105        0.6989096335        0.3590866888
O             0.7500007895        0.6989096335        0.3590866888
O             0.0000000000        0.0104215160        0.4116516661
O             0.5000000000        0.0103872470        0.4116523760
O             0.0000000000        0.5103265555        0.4447901624
O             0.5000000000        0.5103348724        0.4447906489
Ru            0.0000000000        0.0103523866        0.5000010000
Ru            0.5000000000        0.0103636074        0.5000010000
O             0.2499813969        0.1964646960        0.5000010000
O             0.7500186031        0.1964646960        0.5000010000
Ru            0.2500079258        0.5103494047        0.5000010000
Ru            0.7499920742        0.5103494047        0.5000010000
O             0.2500029321        0.8242375281        0.5000010000
O             0.7499970679        0.8242375281        0.5000010000
O             0.0000000000        0.5103265555        0.5552108376
O             0.5000000000        0.5103348724        0.5552103511
O             0.0000000000        0.0104215160        0.5883493339
O             0.5000000000        0.0103872470        0.5883486240
Ru            0.2500016267        0.0103718850        0.6411363498
Ru            0.7499983733        0.0103718850        0.6411363498
O             0.2500102548        0.3218317756        0.6409396729
O             0.7499897452        0.3218317756        0.6409396729
Ru            0.0000000000        0.5103746420        0.6478447862
Ru            0.5000000000        0.5103777159        0.6478419905
O             0.2499992105        0.6989096335        0.6409143112
O             0.7500007895        0.6989096335        0.6409143112
O             0.0000000000        0.0103244950        0.6954589120
O             0.5000000000        0.0103416597        0.6954671086
O             0.0000000000        0.5104912788        0.7261735380
O             0.5000000000        0.5104790015        0.7261696307
H             0.0000000000        0.0104802980        0.2605346143
H             0.0000000000        0.0104802980        0.7394653857
H             0.5000000000        0.0104575047        0.2605254502
H             0.5000000000        0.0104575047        0.7394745498
End final coordinates



     Writing all to output data dir /storage/home/mgm6007/ixd4/Maria/StrainJin_Files/RuO2-110-0-23/RuO2-110-0-23.save/
 
     init_run     :    361.09s CPU    984.28s WALL (       1 calls)
     electrons    :  68175.81s CPU 169438.79s WALL (      65 calls)
     update_pot   :    108.67s CPU    109.00s WALL (      64 calls)
     forces       :    129.01s CPU    129.61s WALL (      65 calls)

     Called by init_run:
     wfcinit      :      0.48s CPU      0.48s WALL (       1 calls)
     potinit      :    276.90s CPU    689.56s WALL (       1 calls)
     hinit0       :     83.26s CPU    293.73s WALL (       1 calls)

     Called by electrons:
     c_bands      :   1405.23s CPU   1406.01s WALL (    1126 calls)
     sum_band     :    285.38s CPU    285.67s WALL (    1126 calls)
     v_of_rho     :    121.23s CPU    121.54s WALL (    1132 calls)
     newd         :     76.60s CPU     76.62s WALL (    1132 calls)
     PAW_pot      :    137.77s CPU    137.82s WALL (    1196 calls)
     mix_rho      :    747.04s CPU    747.38s WALL (    1126 calls)

     Called by c_bands:
     init_us_2    :     15.34s CPU     15.37s WALL (    2317 calls)
     init_us_2:cp :     15.33s CPU     15.36s WALL (    2317 calls)
     cegterg      :   1353.80s CPU   1354.40s WALL (    1126 calls)

     Called by *egterg:
     cdiaghg      :    170.07s CPU    170.10s WALL (    3579 calls)
     h_psi        :    684.80s CPU    685.23s WALL (    3703 calls)
     s_psi        :    105.42s CPU    105.44s WALL (    3703 calls)
     g_psi        :      3.37s CPU      3.38s WALL (    2576 calls)

     Called by h_psi:
     h_psi:calbec :    105.43s CPU    105.51s WALL (    3703 calls)
     vloc_psi     :    464.82s CPU    465.10s WALL (    3703 calls)
     add_vuspsi   :    106.32s CPU    106.40s WALL (    3703 calls)

     General routines
     calbec       :    166.00s CPU    166.10s WALL (    5153 calls)
     fft          :  15756.39s CPU  15759.06s WALL (   15424 calls)
     ffts         :    275.39s CPU    275.34s WALL (  432686 calls)
     fftw         :    426.64s CPU    426.71s WALL ( 1312844 calls)
     interpolate  :  15669.20s CPU  15671.90s WALL (    1132 calls)
 
     Parallel routines
 
     Environ routines
 
     PWSCF        :     20h13m CPU   2d 2h 6m WALL

 
   This run was terminated on:  13:24:21  28Jul2023            

=------------------------------------------------------------------------------=
   JOB DONE.
=------------------------------------------------------------------------------=
