
     Program PWSCF v.7.2 starts on 18Jul2023 at 16:12:34 
        Git branch: heads/qe-7.2
        Last git commit: b4c5e8deeb7d1863e7553a87b45f8d22c21926a5
        Last git commit date: Mon Mar 27 16:12:09 2023 +0000
        Last git commit subject: Merge branch 'merge_fix_hubbard' into 'develop'

     This program is part of the open-source Quantum ESPRESSO suite
     for quantum simulation of materials; please cite
         "P. Giannozzi et al., J. Phys.:Condens. Matter 21 395502 (2009);
         "P. Giannozzi et al., J. Phys.:Condens. Matter 29 465901 (2017);
         "P. Giannozzi et al., J. Chem. Phys. 152 154105 (2020);
          URL http://www.quantum-espresso.org", 
     in publications or presentations arising from this work. More details at
     http://www.quantum-espresso.org/quote

     Parallel version (MPI), running on    20 processors

     MPI processes distributed on     1 nodes
     107402 MiB available memory on the printing compute node when the environment starts
 
     Reading input from RuO2-110-0-02345.in

     Current dimensions of program PWSCF are:
     Max number of different atomic species (ntypx) = 10
     Max number of k-points (npk) =  40000
     Max angular momentum in pseudopotentials (lmaxx) =  4
 
     Reading input from environ.in:
     * Environ restarting
     * setting up water environment
     * using electronic solvent mode
     * setting boundary derivatives method to SCCS default
     
     file O.pbe-n-kjpaw_psl.0.1.UPF: wavefunction(s)  2P renormalized
     Message from routine setup:
     using ibrav=0 with symmetry is DISCOURAGED, use correct ibrav instead
 
     R & G space division:  proc/nbgrp/npool/nimage =      20
     Subspace diagonalization in iterative solution of the eigenvalue problem:
     one sub-group per band group will be used
     scalapack distributed-memory algorithm (size of sub-group:  2*  2 procs)

 
     Parallelization info
     --------------------
     sticks:   dense  smooth     PW     G-vecs:    dense   smooth      PW
     Min         276     110     29                54830    13868    1873
     Max         277     111     30                54841    13883    1882
     Sum        5527    2209    585              1096679   277485   37533
 
     Using Slab Decomposition
 


     bravais-lattice index     =            0
     lattice parameter (alat)  =      12.3893  a.u.
     unit-cell volume          =    5808.5831 (a.u.)^3
     number of atoms/cell      =           50
     number of atomic types    =            3
     number of electrons       =       370.00
     number of Kohn-Sham states=          222
     kinetic-energy cutoff     =      50.0000  Ry
     charge density cutoff     =     500.0000  Ry
     scf convergence threshold =      1.0E-09
     mixing beta               =       0.7000
     number of iterations used =            8  local-TF  mixing
     energy convergence thresh.=      1.0E-04
     force convergence thresh. =      1.0E-04
     Exchange-correlation= PBE
                           (   1   4   3   4   0   0   0)
     nstep                     =          200


     ================================================================================
 
                                  Environ Setup Summary

     ================================================================================
 
     Please cite

          O. Andreussi, I. Dabo and N. Marzari, J. Chem. Phys. 136, 064102 (2012)

     in publications or presentations arising from this work.

     ================================================================================
 
     Parameters
     ==========

     compensation onset threshold      =               0.1000E+00
     static permittivity               =                    78.30
     surface tension in input (dyn/cm) =                    47.90
     surface tension in internal units =               0.6153E-04
     external pressure in input (GPa)  =                    -0.36
     external pressure in inter. units =              -0.2447E-04

     Solvent Boundary
     ================

     solvent mode                      =               electronic
     derivatives method                =                    chain
     numerical core for derivatives    =                      fft
     switching function adopted        =                     SCCS
     density limit for vacuum region   =               0.5000E-02
     density limit for bulk solvent    =               0.1000E-03

     Electrostatic Setup
     ===================

     electrostatic problem to solve    =              generalized
     numerical solver adopted          =                       cg
     type of auxiliary density adopted =                     none
     numerical core for poisson        =                      fft
     type of pbc corrections           =                parabolic
     numerical core for corrections    =                      1da

     ================================================================================
 

     celldm(1)=  12.389316  celldm(2)=   0.000000  celldm(3)=   0.000000
     celldm(4)=   0.000000  celldm(5)=   0.000000  celldm(6)=   0.000000

     crystal axes: (cart. coord. in units of alat)
               a(1) = (   1.000000   0.000000   0.000000 )  
               a(2) = (   0.000000   0.904766   0.000000 )  
               a(3) = (   0.000000   0.000000   3.375918 )  

     reciprocal axes: (cart. coord. in units 2 pi/alat)
               b(1) = (  1.000000  0.000000  0.000000 )  
               b(2) = (  0.000000  1.105258  0.000000 )  
               b(3) = (  0.000000  0.000000  0.296216 )  


     PseudoPot. # 1 for O  read from file:
     /gpfs/group/ixd4/default/Simon/pseudopotentials/materialscloud/SSSP_1.3.0_PBE_efficiency/O.pbe-n-kjpaw_psl.0.1.UPF
     MD5 check sum: 0234752ac141de4415c5fc33072bef88
     Pseudo is Projector augmented-wave + core cor, Zval =  6.0
     Generated using "atomic" code by A. Dal Corso  v.5.0.99 svn rev. 10869
     Shape of augmentation charge: BESSEL
     Using radial grid of 1095 points,  4 beta functions with: 
                l(1) =   0
                l(2) =   0
                l(3) =   1
                l(4) =   1
     Q(r) pseudized with 0 coefficients 


     PseudoPot. # 2 for Ru read from file:
     /gpfs/group/ixd4/default/Simon/pseudopotentials/materialscloud/SSSP_1.3.0_PBE_efficiency/Ru_ONCV_PBE-1.0.oncvpsp.upf
     MD5 check sum: be037bb81c227cfb9b1461a9f099f4bd
     Pseudo is Norm-conserving, Zval = 16.0
     Generated using ONCVPSP code by D. R. Hamann
     Using radial grid of 1458 points,  6 beta functions with: 
                l(1) =   0
                l(2) =   0
                l(3) =   1
                l(4) =   1
                l(5) =   2
                l(6) =   2

     PseudoPot. # 3 for H  read from file:
     /gpfs/group/ixd4/default/Simon/pseudopotentials/materialscloud/SSSP_1.3.0_PBE_efficiency/H.pbe-rrkjus_psl.1.0.0.UPF
     MD5 check sum: f52b6d4d1c606e5624b1dc7b2218f220
     Pseudo is Ultrasoft, Zval =  1.0
     Generated using "atomic" code by A. Dal Corso  v.5.1
     Using radial grid of  929 points,  2 beta functions with: 
                l(1) =   0
                l(2) =   0
     Q(r) pseudized with 0 coefficients 


     atomic species   valence    mass     pseudopotential
        O              6.00    15.99940     O ( 1.00)
        Ru            16.00   101.07000     Ru( 1.00)
        H              1.00     1.00794     H ( 1.00)

      4 Sym. Ops. (no inversion) found



   Cartesian axes

     site n.     atom                  positions (alat units)
         1           O   tau(   1) = (   0.0226662   0.4523832   0.8884724  )
         2           O   tau(   2) = (   0.4767775   0.4523832   0.9024618  )
         3           O   tau(   3) = (  -0.0019183   0.0000000   0.9799086  )
         4           O   tau(   4) = (   0.4964764   0.0000000   0.9801908  )
         5           Ru  tau(   5) = (   0.2475095   0.0000000   1.2182546  )
         6           Ru  tau(   6) = (   0.7479972   0.0000000   1.2146912  )
         7           O   tau(   7) = (   0.2469673   0.2815213   1.2025470  )
         8           O   tau(   8) = (   0.7499542   0.2825783   1.1919072  )
         9           Ru  tau(   9) = (  -0.0002155   0.4523832   1.2016180  )
        10           Ru  tau(  10) = (   0.4990660   0.4523832   1.1810643  )
        11           O   tau(  11) = (   0.2469673   0.6232450   1.2025470  )
        12           O   tau(  12) = (   0.7499542   0.6221880   1.1919072  )
        13           O   tau(  13) = (  -0.0038540   0.0000000   1.3921335  )
        14           O   tau(  14) = (   0.4984051   0.0000000   1.3922473  )
        15           O   tau(  15) = (  -0.0033133   0.4523832   1.5036270  )
        16           O   tau(  16) = (   0.4977686   0.4523832   1.4944094  )
        17           Ru  tau(  17) = (  -0.0035214   0.0000000   1.6879622  )
        18           Ru  tau(  18) = (   0.4969915   0.0000000   1.6879622  )
        19           O   tau(  19) = (   0.2463239   0.1688558   1.6879622  )
        20           O   tau(  20) = (   0.7461533   0.1690332   1.6879622  )
        21           Ru  tau(  21) = (   0.2513580   0.4523832   1.6879622  )
        22           Ru  tau(  22) = (   0.7456502   0.4523832   1.6879622  )
        23           O   tau(  23) = (   0.2463239   0.7359114   1.6879622  )
        24           O   tau(  24) = (   0.7461533   0.7357340   1.6879622  )
        25           O   tau(  25) = (  -0.0033133   0.4523832   1.8722939  )
        26           O   tau(  26) = (   0.4977686   0.4523832   1.8815115  )
        27           O   tau(  27) = (  -0.0038540   0.0000000   1.9837874  )
        28           O   tau(  28) = (   0.4984051   0.0000000   1.9836736  )
        29           Ru  tau(  29) = (   0.2475095   0.0000000   2.1576663  )
        30           Ru  tau(  30) = (   0.7479972   0.0000000   2.1612298  )
        31           O   tau(  31) = (   0.2469673   0.2815213   2.1733739  )
        32           O   tau(  32) = (   0.7499542   0.2825783   2.1840137  )
        33           Ru  tau(  33) = (  -0.0002155   0.4523832   2.1743029  )
        34           Ru  tau(  34) = (   0.4990660   0.4523832   2.1948566  )
        35           O   tau(  35) = (   0.2469673   0.6232450   2.1733739  )
        36           O   tau(  36) = (   0.7499542   0.6221880   2.1840137  )
        37           O   tau(  37) = (  -0.0019183   0.0000000   2.3960158  )
        38           O   tau(  38) = (   0.4964764   0.0000000   2.3957335  )
        39           O   tau(  39) = (   0.0226662   0.4523832   2.4874486  )
        40           O   tau(  40) = (   0.4767775   0.4523832   2.4734591  )
        41           H   tau(  41) = (   0.1719323   0.4523832   0.8670527  )
        42           H   tau(  42) = (   0.1719323   0.4523832   2.5088649  )
        43           H   tau(  43) = (  -0.0008215   0.1262455   0.8956274  )
        44           H   tau(  44) = (  -0.0008215   0.1262455   2.4802901  )
        45           H   tau(  45) = (   0.4942104   0.1253363   0.8952060  )
        46           H   tau(  46) = (   0.4942104   0.1253363   2.4807116  )
        47           H   tau(  47) = (  -0.0008215   0.7785208   0.8956274  )
        48           H   tau(  48) = (  -0.0008215   0.7785208   2.4802901  )
        49           H   tau(  49) = (   0.4942104   0.7794300   0.8952060  )
        50           H   tau(  50) = (   0.4942104   0.7794300   2.4807116  )

     number of k points=     1  Marzari-Vanderbilt smearing, width (Ry)=  0.0300
                       cart. coord. in units 2pi/alat
        k(    1) = (   0.2500000   0.2763144   0.0000000), wk =   2.0000000

     Dense  grid:  1096679 G-vectors     FFT dimensions: (  90,  80, 300)

     Smooth grid:   277485 G-vectors     FFT dimensions: (  60,  54, 192)

     Estimated max dynamical RAM per process >     168.42 MB

     Estimated total dynamical RAM >       3.29 GB

     Check: negative core charge=   -0.000001

     Initial potential from superposition of free atoms

     starting charge     369.9932, renormalised to     370.0000

     add environment contribution to local potential
     Polarization accuracy = 2.3E-12, # of iterations =  24

     negative rho (up, down):  2.890E-05 0.000E+00
     Starting wfcs are  242 randomized atomic wfcs
     Checking if some PAW data can be deallocated... 

     total cpu time spent up to now is     2256.7 secs

     per-process dynamical memory:   138.3 Mb

     Self-consistent Calculation

     iteration #  1     ecut=    50.00 Ry     beta= 0.70
     Davidson diagonalization with overlap
     ethr =  1.00E-02,  avg # of iterations =  3.0

     negative rho (up, down):  3.582E-08 0.000E+00

     total cpu time spent up to now is     2899.9 secs

     total energy              =   -3437.87088261 Ry
     estimated scf accuracy    <       9.14330237 Ry
     electrostatic embedding   =      -0.00168636 Ry
     cavitation energy         =       0.01861764 Ry
     PV energy                 =      -0.08689871 Ry
     correction to one-el term =     227.48331858 Ry

     iteration #  2     ecut=    50.00 Ry     beta= 0.70
     Davidson diagonalization with overlap
     ethr =  2.47E-03,  avg # of iterations =  2.0

     total cpu time spent up to now is     3723.2 secs

     total energy              =   -3439.70073608 Ry
     estimated scf accuracy    <       2.98447283 Ry
     electrostatic embedding   =      -0.00284723 Ry
     cavitation energy         =       0.01847476 Ry
     PV energy                 =      -0.08796915 Ry
     correction to one-el term =     227.48692691 Ry

     iteration #  3     ecut=    50.00 Ry     beta= 0.70
     Davidson diagonalization with overlap
     ethr =  8.07E-04,  avg # of iterations =  2.0

     total cpu time spent up to now is     4440.5 secs

     total energy              =   -3439.85229123 Ry
     estimated scf accuracy    <       0.73227643 Ry
     electrostatic embedding   =      -0.00336137 Ry
     cavitation energy         =       0.01852581 Ry
     PV energy                 =      -0.08835045 Ry
     correction to one-el term =     227.48833942 Ry

     iteration #  4     ecut=    50.00 Ry     beta= 0.70
     Davidson diagonalization with overlap
     ethr =  1.98E-04,  avg # of iterations =  5.0

     total cpu time spent up to now is     4977.9 secs

     total energy              =   -3439.91983190 Ry
     estimated scf accuracy    <       1.54645470 Ry
     electrostatic embedding   =      -0.00359260 Ry
     cavitation energy         =       0.01870672 Ry
     PV energy                 =      -0.08804655 Ry
     correction to one-el term =     227.48862791 Ry

     iteration #  5     ecut=    50.00 Ry     beta= 0.70
     Davidson diagonalization with overlap
     ethr =  1.98E-04,  avg # of iterations =  2.0

     total cpu time spent up to now is     5625.1 secs

     total energy              =   -3439.88659002 Ry
     estimated scf accuracy    <       0.77284829 Ry
     electrostatic embedding   =      -0.00386463 Ry
     cavitation energy         =       0.01898021 Ry
     PV energy                 =      -0.08774300 Ry
     correction to one-el term =     227.48903087 Ry

     iteration #  6     ecut=    50.00 Ry     beta= 0.70
     Davidson diagonalization with overlap
     ethr =  1.98E-04,  avg # of iterations =  1.0

     total cpu time spent up to now is     6268.1 secs

     total energy              =   -3439.87283485 Ry
     estimated scf accuracy    <       0.35482613 Ry
     electrostatic embedding   =      -0.00413470 Ry
     cavitation energy         =       0.01973910 Ry
     PV energy                 =      -0.08654091 Ry
     correction to one-el term =     227.48900262 Ry

     iteration #  7     ecut=    50.00 Ry     beta= 0.70
     Davidson diagonalization with overlap
     ethr =  9.59E-05,  avg # of iterations =  1.0

     total cpu time spent up to now is     6841.6 secs

     total energy              =   -3439.86494192 Ry
     estimated scf accuracy    <       0.19806733 Ry
     electrostatic embedding   =      -0.00408418 Ry
     cavitation energy         =       0.02021081 Ry
     PV energy                 =      -0.08543357 Ry
     correction to one-el term =     227.48838386 Ry

     iteration #  8     ecut=    50.00 Ry     beta= 0.70
     Davidson diagonalization with overlap
     ethr =  5.35E-05,  avg # of iterations = 10.0

     add environment contribution to local potential
     Polarization accuracy = 5.9E-12, # of iterations =  42

     total cpu time spent up to now is     7391.0 secs

     total energy              =   -3439.86304170 Ry
     estimated scf accuracy    <       0.04637769 Ry
     electrostatic embedding   =      -0.00373519 Ry
     cavitation energy         =       0.02104965 Ry
     PV energy                 =      -0.08343022 Ry
     correction to one-el term =     227.48663022 Ry

     iteration #  9     ecut=    50.00 Ry     beta= 0.70
     Davidson diagonalization with overlap
     ethr =  1.25E-05,  avg # of iterations = 10.0

     total cpu time spent up to now is     8075.3 secs

     total energy              =   -3439.91989992 Ry
     estimated scf accuracy    <       0.18991237 Ry
     electrostatic embedding   =      -0.07204681 Ry
     cavitation energy         =       0.02091906 Ry
     PV energy                 =      -0.08315769 Ry
     correction to one-el term =     170.14877528 Ry

     iteration # 10     ecut=    50.00 Ry     beta= 0.70
     Davidson diagonalization with overlap
     ethr =  1.25E-05,  avg # of iterations =  1.0

     add environment contribution to local potential
     Polarization accuracy = 3.5E-12, # of iterations =  42

     total cpu time spent up to now is     8671.4 secs

     total energy              =   -3439.91526808 Ry
     estimated scf accuracy    <       0.09086730 Ry
     electrostatic embedding   =      -0.07242329 Ry
     cavitation energy         =       0.02089754 Ry
     PV energy                 =      -0.08308211 Ry
     correction to one-el term =     170.15014219 Ry

     iteration # 11     ecut=    50.00 Ry     beta= 0.70
     Davidson diagonalization with overlap
     ethr =  1.25E-05,  avg # of iterations =  1.0

     add environment contribution to local potential
     Polarization accuracy = 2.1E-12, # of iterations =  42

     total cpu time spent up to now is     9413.1 secs

     total energy              =   -3439.91647002 Ry
     estimated scf accuracy    <       0.03491865 Ry
     electrostatic embedding   =      -0.07475544 Ry
     cavitation energy         =       0.02077775 Ry
     PV energy                 =      -0.08314719 Ry
     correction to one-el term =     170.78581992 Ry

     iteration # 12     ecut=    50.00 Ry     beta= 0.70
     Davidson diagonalization with overlap
     ethr =  9.44E-06,  avg # of iterations =  2.0

     negative rho (up, down):  4.811E-07 0.000E+00

     add environment contribution to local potential
     Polarization accuracy = 6.9E-12, # of iterations =  42

     total cpu time spent up to now is    10099.4 secs

     total energy              =   -3439.91589944 Ry
     estimated scf accuracy    <       0.01047541 Ry
     electrostatic embedding   =      -0.07603873 Ry
     cavitation energy         =       0.02067822 Ry
     PV energy                 =      -0.08319376 Ry
     correction to one-el term =     171.67154695 Ry

     iteration # 13     ecut=    50.00 Ry     beta= 0.70
     Davidson diagonalization with overlap
     ethr =  2.83E-06,  avg # of iterations = 18.0

     negative rho (up, down):  3.596E-04 0.000E+00

     add environment contribution to local potential
     Polarization accuracy = 2.1E-12, # of iterations =  42

     total cpu time spent up to now is    10741.0 secs

     total energy              =   -3439.92031978 Ry
     estimated scf accuracy    <       0.00832943 Ry
     electrostatic embedding   =      -0.08149663 Ry
     cavitation energy         =       0.02061118 Ry
     PV energy                 =      -0.08315044 Ry
     correction to one-el term =     172.47091328 Ry

     iteration # 14     ecut=    50.00 Ry     beta= 0.70
     Davidson diagonalization with overlap
     c_bands:  1 eigenvalues not converged
     ethr =  2.25E-06,  avg # of iterations = 20.0

     negative rho (up, down):  4.949E-05 0.000E+00

     add environment contribution to local potential
     Polarization accuracy = 2.0E-12, # of iterations =  42

     total cpu time spent up to now is    11285.5 secs

     total energy              =   -3439.92050218 Ry
     estimated scf accuracy    <       0.03008128 Ry
     electrostatic embedding   =      -0.08361547 Ry
     cavitation energy         =       0.02048993 Ry
     PV energy                 =      -0.08329766 Ry
     correction to one-el term =     174.00611434 Ry

     iteration # 15     ecut=    50.00 Ry     beta= 0.70
     Davidson diagonalization with overlap
     ethr =  2.25E-06,  avg # of iterations =  2.0

     negative rho (up, down):  2.333E-07 0.000E+00

     add environment contribution to local potential
     Polarization accuracy = 1.8E-12, # of iterations =  42

     total cpu time spent up to now is    11882.3 secs

     total energy              =   -3439.92052833 Ry
     estimated scf accuracy    <       0.01507190 Ry
     electrostatic embedding   =      -0.08125663 Ry
     cavitation energy         =       0.02048178 Ry
     PV energy                 =      -0.08336360 Ry
     correction to one-el term =     174.58273889 Ry

     iteration # 16     ecut=    50.00 Ry     beta= 0.70
     Davidson diagonalization with overlap
     ethr =  2.25E-06,  avg # of iterations =  2.0

     add environment contribution to local potential
     Polarization accuracy = 6.6E-12, # of iterations =  41

     total cpu time spent up to now is    12402.5 secs

     total energy              =   -3439.92039586 Ry
     estimated scf accuracy    <       0.00583365 Ry
     electrostatic embedding   =      -0.07904504 Ry
     cavitation energy         =       0.02047861 Ry
     PV energy                 =      -0.08340822 Ry
     correction to one-el term =     175.03706509 Ry

     iteration # 17     ecut=    50.00 Ry     beta= 0.70
     Davidson diagonalization with overlap
     ethr =  1.58E-06,  avg # of iterations =  6.0

     negative rho (up, down):  5.719E-04 0.000E+00

     add environment contribution to local potential
     Polarization accuracy = 4.0E-12, # of iterations =  41

     total cpu time spent up to now is    13086.7 secs

     total energy              =   -3439.92094758 Ry
     estimated scf accuracy    <       0.00038468 Ry
     electrostatic embedding   =      -0.07477882 Ry
     cavitation energy         =       0.02045459 Ry
     PV energy                 =      -0.08349092 Ry
     correction to one-el term =     175.90107268 Ry

     iteration # 18     ecut=    50.00 Ry     beta= 0.70
     Davidson diagonalization with overlap
     ethr =  1.04E-07,  avg # of iterations = 14.0

     negative rho (up, down):  9.965E-04 0.000E+00

     add environment contribution to local potential
     Polarization accuracy = 3.9E-12, # of iterations =  41

     total cpu time spent up to now is    13691.6 secs

     total energy              =   -3439.92105286 Ry
     estimated scf accuracy    <       0.00008020 Ry
     electrostatic embedding   =      -0.07204569 Ry
     cavitation energy         =       0.02041316 Ry
     PV energy                 =      -0.08353532 Ry
     correction to one-el term =     176.63064313 Ry

     iteration # 19     ecut=    50.00 Ry     beta= 0.70
     Davidson diagonalization with overlap
     ethr =  2.17E-08,  avg # of iterations =  2.0

     negative rho (up, down):  8.753E-04 0.000E+00

     add environment contribution to local potential
     Polarization accuracy = 7.2E-12, # of iterations =  43

     total cpu time spent up to now is    13866.7 secs

     total energy              =   -3439.92106222 Ry
     estimated scf accuracy    <       0.00006118 Ry
     electrostatic embedding   =      -0.07135845 Ry
     cavitation energy         =       0.02040288 Ry
     PV energy                 =      -0.08353435 Ry
     correction to one-el term =     176.80690835 Ry

     iteration # 20     ecut=    50.00 Ry     beta= 0.70
     Davidson diagonalization with overlap
     ethr =  1.65E-08,  avg # of iterations =  2.0

     negative rho (up, down):  5.539E-04 0.000E+00

     add environment contribution to local potential
     Polarization accuracy = 4.5E-12, # of iterations =  41

     total cpu time spent up to now is    13995.0 secs

     total energy              =   -3439.92106384 Ry
     estimated scf accuracy    <       0.00001584 Ry
     electrostatic embedding   =      -0.07074444 Ry
     cavitation energy         =       0.02039690 Ry
     PV energy                 =      -0.08352722 Ry
     correction to one-el term =     176.91862625 Ry

     iteration # 21     ecut=    50.00 Ry     beta= 0.70
     Davidson diagonalization with overlap
     ethr =  4.28E-09,  avg # of iterations =  1.0

     negative rho (up, down):  3.414E-05 0.000E+00

     add environment contribution to local potential
     Polarization accuracy = 5.1E-12, # of iterations =  41

     total cpu time spent up to now is    14119.4 secs

     total energy              =   -3439.92106240 Ry
     estimated scf accuracy    <       0.00000563 Ry
     electrostatic embedding   =      -0.07056160 Ry
     cavitation energy         =       0.02039574 Ry
     PV energy                 =      -0.08351841 Ry
     correction to one-el term =     176.93935378 Ry

     iteration # 22     ecut=    50.00 Ry     beta= 0.70
     Davidson diagonalization with overlap
     ethr =  1.52E-09,  avg # of iterations =  2.0

     negative rho (up, down):  3.173E-05 0.000E+00

     add environment contribution to local potential
     Polarization accuracy = 5.3E-12, # of iterations =  41

     total cpu time spent up to now is    14251.6 secs

     total energy              =   -3439.92106234 Ry
     estimated scf accuracy    <       0.00000241 Ry
     electrostatic embedding   =      -0.07061543 Ry
     cavitation energy         =       0.02039756 Ry
     PV energy                 =      -0.08350296 Ry
     correction to one-el term =     176.89360467 Ry

     iteration # 23     ecut=    50.00 Ry     beta= 0.70
     Davidson diagonalization with overlap
     ethr =  6.53E-10,  avg # of iterations =  1.0

     negative rho (up, down):  2.810E-05 0.000E+00

     add environment contribution to local potential
     Polarization accuracy = 5.3E-12, # of iterations =  41

     total cpu time spent up to now is    14390.7 secs

     total energy              =   -3439.92106252 Ry
     estimated scf accuracy    <       0.00000121 Ry
     electrostatic embedding   =      -0.07059028 Ry
     cavitation energy         =       0.02039686 Ry
     PV energy                 =      -0.08349863 Ry
     correction to one-el term =     176.89616874 Ry

     iteration # 24     ecut=    50.00 Ry     beta= 0.70
     Davidson diagonalization with overlap
     ethr =  3.28E-10,  avg # of iterations =  1.0

     negative rho (up, down):  2.956E-05 0.000E+00

     add environment contribution to local potential
     Polarization accuracy = 5.4E-12, # of iterations =  41

     total cpu time spent up to now is    14535.4 secs

     total energy              =   -3439.92106263 Ry
     estimated scf accuracy    <       0.00000049 Ry
     electrostatic embedding   =      -0.07055850 Ry
     cavitation energy         =       0.02039621 Ry
     PV energy                 =      -0.08349708 Ry
     correction to one-el term =     176.89836051 Ry

     iteration # 25     ecut=    50.00 Ry     beta= 0.70
     Davidson diagonalization with overlap
     ethr =  1.32E-10,  avg # of iterations =  2.0

     negative rho (up, down):  7.966E-05 0.000E+00

     add environment contribution to local potential
     Polarization accuracy = 5.3E-12, # of iterations =  41

     total cpu time spent up to now is    14682.9 secs

     total energy              =   -3439.92106313 Ry
     estimated scf accuracy    <       0.00000019 Ry
     electrostatic embedding   =      -0.07062344 Ry
     cavitation energy         =       0.02039651 Ry
     PV energy                 =      -0.08349583 Ry
     correction to one-el term =     176.88215970 Ry

     iteration # 26     ecut=    50.00 Ry     beta= 0.70
     Davidson diagonalization with overlap
     ethr =  5.10E-11,  avg # of iterations =  2.0

     negative rho (up, down):  8.291E-05 0.000E+00

     add environment contribution to local potential
     Polarization accuracy = 5.3E-12, # of iterations =  41

     total cpu time spent up to now is    14845.3 secs

     total energy              =   -3439.92106364 Ry
     estimated scf accuracy    <       0.00000011 Ry
     electrostatic embedding   =      -0.07060381 Ry
     cavitation energy         =       0.02039546 Ry
     PV energy                 =      -0.08349696 Ry
     correction to one-el term =     176.89168920 Ry

     iteration # 27     ecut=    50.00 Ry     beta= 0.70
     Davidson diagonalization with overlap
     ethr =  2.98E-11,  avg # of iterations =  1.0

     negative rho (up, down):  9.730E-05 0.000E+00

     add environment contribution to local potential
     Polarization accuracy = 5.3E-12, # of iterations =  41

     total cpu time spent up to now is    14988.0 secs

     total energy              =   -3439.92106387 Ry
     estimated scf accuracy    <       0.00000009 Ry
     electrostatic embedding   =      -0.07062015 Ry
     cavitation energy         =       0.02039551 Ry
     PV energy                 =      -0.08349676 Ry
     correction to one-el term =     176.88811080 Ry

     iteration # 28     ecut=    50.00 Ry     beta= 0.70
     Davidson diagonalization with overlap
     ethr =  2.54E-11,  avg # of iterations =  1.0

     negative rho (up, down):  1.099E-04 0.000E+00

     add environment contribution to local potential
     Polarization accuracy = 5.3E-12, # of iterations =  41

     total cpu time spent up to now is    15137.5 secs

     total energy              =   -3439.92106405 Ry
     estimated scf accuracy    <       0.00000007 Ry
     electrostatic embedding   =      -0.07061640 Ry
     cavitation energy         =       0.02039536 Ry
     PV energy                 =      -0.08349712 Ry
     correction to one-el term =     176.89055229 Ry

     iteration # 29     ecut=    50.00 Ry     beta= 0.70
     Davidson diagonalization with overlap
     ethr =  2.02E-11,  avg # of iterations =  1.0

     negative rho (up, down):  1.118E-04 0.000E+00

     add environment contribution to local potential
     Polarization accuracy = 5.3E-12, # of iterations =  41

     total cpu time spent up to now is    15277.4 secs

     total energy              =   -3439.92106438 Ry
     estimated scf accuracy    <       0.00000006 Ry
     electrostatic embedding   =      -0.07060732 Ry
     cavitation energy         =       0.02039518 Ry
     PV energy                 =      -0.08349714 Ry
     correction to one-el term =     176.89400192 Ry

     iteration # 30     ecut=    50.00 Ry     beta= 0.70
     Davidson diagonalization with overlap
     ethr =  1.73E-11,  avg # of iterations =  1.0

     negative rho (up, down):  1.101E-04 0.000E+00

     add environment contribution to local potential
     Polarization accuracy = 5.1E-12, # of iterations =  42

     total cpu time spent up to now is    15416.4 secs

     total energy              =   -3439.92106460 Ry
     estimated scf accuracy    <       0.00000006 Ry
     electrostatic embedding   =      -0.07060618 Ry
     cavitation energy         =       0.02039519 Ry
     PV energy                 =      -0.08349723 Ry
     correction to one-el term =     176.89508328 Ry

     iteration # 31     ecut=    50.00 Ry     beta= 0.70
     Davidson diagonalization with overlap
     ethr =  1.70E-11,  avg # of iterations =  1.0

     negative rho (up, down):  1.060E-04 0.000E+00

     add environment contribution to local potential
     Polarization accuracy = 5.4E-12, # of iterations =  41

     total cpu time spent up to now is    15538.7 secs

     total energy              =   -3439.92106509 Ry
     estimated scf accuracy    <       0.00000006 Ry
     electrostatic embedding   =      -0.07060238 Ry
     cavitation energy         =       0.02039517 Ry
     PV energy                 =      -0.08349682 Ry
     correction to one-el term =     176.89614234 Ry

     iteration # 32     ecut=    50.00 Ry     beta= 0.70
     Davidson diagonalization with overlap
     ethr =  1.51E-11,  avg # of iterations =  2.0

     negative rho (up, down):  9.747E-05 0.000E+00

     add environment contribution to local potential
     Polarization accuracy = 5.1E-12, # of iterations =  42

     total cpu time spent up to now is    15668.8 secs

     total energy              =   -3439.92106600 Ry
     estimated scf accuracy    <       0.00000005 Ry
     electrostatic embedding   =      -0.07060334 Ry
     cavitation energy         =       0.02039521 Ry
     PV energy                 =      -0.08349637 Ry
     correction to one-el term =     176.89574796 Ry

     iteration # 33     ecut=    50.00 Ry     beta= 0.70
     Davidson diagonalization with overlap
     ethr =  1.43E-11,  avg # of iterations =  2.0

     negative rho (up, down):  9.444E-05 0.000E+00

     add environment contribution to local potential
     Polarization accuracy = 5.4E-12, # of iterations =  41

     total cpu time spent up to now is    15806.1 secs

     total energy              =   -3439.92106762 Ry
     estimated scf accuracy    <       0.00000005 Ry
     electrostatic embedding   =      -0.07059765 Ry
     cavitation energy         =       0.02039527 Ry
     PV energy                 =      -0.08349598 Ry
     correction to one-el term =     176.89683967 Ry

     iteration # 34     ecut=    50.00 Ry     beta= 0.70
     Davidson diagonalization with overlap
     ethr =  1.25E-11,  avg # of iterations =  5.0

     negative rho (up, down):  8.890E-05 0.000E+00

     add environment contribution to local potential
     Polarization accuracy = 6.3E-12, # of iterations =  41

     total cpu time spent up to now is    15961.2 secs

     total energy              =   -3439.92107028 Ry
     estimated scf accuracy    <       0.00000004 Ry
     electrostatic embedding   =      -0.07059640 Ry
     cavitation energy         =       0.02039528 Ry
     PV energy                 =      -0.08349559 Ry
     correction to one-el term =     176.89650376 Ry

     iteration # 35     ecut=    50.00 Ry     beta= 0.70
     Davidson diagonalization with overlap
     ethr =  1.04E-11,  avg # of iterations =  2.0

     negative rho (up, down):  8.813E-05 0.000E+00

     add environment contribution to local potential
     Polarization accuracy = 5.0E-12, # of iterations =  41

     total cpu time spent up to now is    16126.5 secs

     total energy              =   -3439.92107355 Ry
     estimated scf accuracy    <       0.00000002 Ry
     electrostatic embedding   =      -0.07059744 Ry
     cavitation energy         =       0.02039536 Ry
     PV energy                 =      -0.08349552 Ry
     correction to one-el term =     176.89558043 Ry

     iteration # 36     ecut=    50.00 Ry     beta= 0.70
     Davidson diagonalization with overlap
     ethr =  5.60E-12,  avg # of iterations =  6.0

     negative rho (up, down):  9.565E-05 0.000E+00

     add environment contribution to local potential
     Polarization accuracy = 3.9E-12, # of iterations =  41

     total cpu time spent up to now is    16260.4 secs

     total energy              =   -3439.92107872 Ry
     estimated scf accuracy    <          5.8E-09 Ry
     electrostatic embedding   =      -0.07059948 Ry
     cavitation energy         =       0.02039539 Ry
     PV energy                 =      -0.08349585 Ry
     correction to one-el term =     176.89428487 Ry

     iteration # 37     ecut=    50.00 Ry     beta= 0.70
     Davidson diagonalization with overlap
     ethr =  1.56E-12,  avg # of iterations =  2.0

     negative rho (up, down):  9.543E-05 0.000E+00

     add environment contribution to local potential
     Polarization accuracy = 3.0E-12, # of iterations =  40

     total cpu time spent up to now is    16388.0 secs

     total energy              =   -3439.92108028 Ry
     estimated scf accuracy    <          3.5E-09 Ry
     electrostatic embedding   =      -0.07060272 Ry
     cavitation energy         =       0.02039533 Ry
     PV energy                 =      -0.08349666 Ry
     correction to one-el term =     176.89386933 Ry

     iteration # 38     ecut=    50.00 Ry     beta= 0.70
     Davidson diagonalization with overlap
     ethr =  9.35E-13,  avg # of iterations =  5.0

     negative rho (up, down):  9.780E-05 0.000E+00

     add environment contribution to local potential
     Polarization accuracy = 2.4E-12, # of iterations =  41

     total cpu time spent up to now is    16542.6 secs

     total energy              =   -3439.92108091 Ry
     estimated scf accuracy    <          2.9E-09 Ry
     electrostatic embedding   =      -0.07060298 Ry
     cavitation energy         =       0.02039533 Ry
     PV energy                 =      -0.08349662 Ry
     correction to one-el term =     176.89398930 Ry

     iteration # 39     ecut=    50.00 Ry     beta= 0.70
     Davidson diagonalization with overlap
     ethr =  7.90E-13,  avg # of iterations =  1.0

     negative rho (up, down):  9.869E-05 0.000E+00

     add environment contribution to local potential
     Polarization accuracy = 3.9E-12, # of iterations =  41

     total cpu time spent up to now is    16675.9 secs

     total energy              =   -3439.92108125 Ry
     estimated scf accuracy    <          1.1E-09 Ry
     electrostatic embedding   =      -0.07060467 Ry
     cavitation energy         =       0.02039531 Ry
     PV energy                 =      -0.08349686 Ry
     correction to one-el term =     176.89379269 Ry

     iteration # 40     ecut=    50.00 Ry     beta= 0.70
     Davidson diagonalization with overlap
     ethr =  2.91E-13,  avg # of iterations =  1.0

     negative rho (up, down):  1.025E-04 0.000E+00

     the potential shift due to the Gaussian-smeared nuclei is    -1.3614 ev

     total cpu time spent up to now is    16819.2 secs

     End of self-consistent calculation

          k = 0.2500 0.2763 0.0000 ( 34692 PWs)   bands (ev):

   -76.2103 -76.1984 -75.8463 -75.8402 -75.8290 -75.8023 -75.7754 -75.7650
   -75.7641 -75.7594 -75.7341 -75.7225 -46.4895 -46.4777 -46.2658 -46.2540
   -46.1839 -46.1769 -46.1661 -46.1651 -46.0900 -46.0787 -46.0725 -46.0240
   -45.9173 -45.9072 -45.8953 -45.8803 -45.8687 -45.8324 -45.8285 -45.8208
   -45.8030 -45.7917 -45.7215 -45.7108 -45.7098 -45.6992 -45.6768 -45.6471
   -45.6420 -45.6358 -45.6108 -45.5674 -45.5620 -45.5457 -45.5325 -45.5209
   -25.2379 -25.2218 -25.1389 -25.1228 -22.5962 -22.5233 -22.3680 -22.1024
   -22.0740 -21.8955 -21.7564 -21.6995 -21.5040 -21.4586 -21.4367 -21.3672
   -21.3616 -21.3298 -21.2172 -21.1843 -21.1658 -21.1499 -20.8955 -20.7078
   -20.6836 -20.4168 -19.7812 -19.7494 -13.2083 -13.1922 -13.1462 -13.1301
   -10.9591 -10.7157 -10.7037 -10.6907 -10.5729 -10.5657 -10.5496 -10.0452
   -10.0314  -9.9399  -9.7171  -9.7019  -9.6775  -9.6470  -9.5579  -9.4948
    -9.4890  -9.4471  -9.3867  -9.3203  -9.2896  -9.2715  -9.1998  -9.0188
    -8.8324  -8.7795  -8.7022  -8.6211  -8.6063  -8.4858  -8.3946  -8.3685
    -8.3360  -8.2150  -8.1104  -7.9516  -7.8930  -7.8544  -7.8121  -7.7793
    -7.6358  -7.6229  -7.4820  -7.3776  -7.3573  -7.3164  -7.2796  -7.2510
    -7.1485  -7.0570  -6.8331  -6.8172  -6.7956  -6.7183  -6.6607  -6.6462
    -6.5062  -6.5028  -6.4539  -6.3820  -6.2494  -6.2405  -6.1228  -5.9734
    -5.9088  -5.7596  -5.7543  -5.7139  -5.6268  -5.4949  -5.3404  -5.2794
    -5.1962  -5.1851  -5.1099  -4.9738  -4.9663  -4.8984  -4.8227  -4.6769
    -3.7816  -3.7012  -3.5469  -3.5095  -3.4251  -3.3668  -3.3442  -3.2705
    -3.2624  -3.2160  -3.1956  -3.1600  -3.1324  -3.0463  -2.9849  -2.9651
    -2.9329  -2.8996  -2.8669  -2.8034  -2.7772  -2.6767  -2.5215  -2.4963
    -2.4030  -2.4005  -2.2621  -2.0968  -1.8441  -1.7677  -1.7170  -1.6001
    -1.4998  -1.4215  -1.3710  -1.3184  -1.1907  -1.1573  -0.5079  -0.3545
    -0.2708  -0.2122  -0.0920  -0.0668  -0.0352   0.4974   0.9339   1.0558
     1.1371   1.1875   1.4280   1.4907   1.4942   1.5690   1.6294   1.6895
     1.7134   1.8685   1.9078   1.9508   2.2931   2.3930

     the Fermi energy is    -2.3968 ev

!    total energy              =   -3439.92108139 Ry
     estimated scf accuracy    <          5.3E-10 Ry
     smearing contrib. (-TS)   =       0.06234077 Ry
     internal energy E=F+TS    =   -3439.98342216 Ry

     The total energy is F=E-TS. E is the sum of the following terms:
     one-electron contribution =  -25106.80469499 Ry
     hartree contribution      =   12555.17600846 Ry
     xc contribution           =    -451.48742421 Ry
     ewald contribution        =    9652.83106241 Ry
     one-center paw contrib.   =    -266.45868613 Ry
     electrostatic embedding   =      -0.07060478 Ry
     cavitation energy         =       0.02039530 Ry
     PV energy                 =      -0.08349685 Ry
     correction to one-el term =     176.89401863 Ry

     WARNING: you are using the parabolic pbc correction;
              the potential shift above must be added to 
              band and Fermi energies.

     convergence has been achieved in  40 iterations

     negative rho (up, down):  1.025E-04 0.000E+00

     Forces acting on atoms (cartesian axes, Ry/au):

     atom    1 type  1   force =     0.00003615    0.00000000    0.00015516
     atom    2 type  1   force =    -0.00012512    0.00000000    0.00021873
     atom    3 type  1   force =     0.00008378    0.00000000   -0.00009097
     atom    4 type  1   force =     0.00001336    0.00000000    0.00001581
     atom    5 type  2   force =    -0.00000680    0.00000000    0.00010514
     atom    6 type  2   force =    -0.00004603    0.00000000   -0.00002382
     atom    7 type  1   force =    -0.00012397   -0.00003160   -0.00006784
     atom    8 type  1   force =    -0.00004728   -0.00000329    0.00009560
     atom    9 type  2   force =    -0.00008721    0.00000000    0.00002425
     atom   10 type  2   force =    -0.00005782    0.00000000    0.00013072
     atom   11 type  1   force =    -0.00012397    0.00003160   -0.00006784
     atom   12 type  1   force =    -0.00004728    0.00000329    0.00009560
     atom   13 type  1   force =     0.00008066    0.00000000    0.00005659
     atom   14 type  1   force =    -0.00009801    0.00000000    0.00002567
     atom   15 type  1   force =     0.00034220    0.00000000   -0.00036497
     atom   16 type  1   force =     0.00018846    0.00000000    0.00009206
     atom   17 type  2   force =     0.00004227    0.00000000    0.00000000
     atom   18 type  2   force =     0.00002847    0.00000000    0.00000000
     atom   19 type  1   force =     0.00013265    0.00002003    0.00000000
     atom   20 type  1   force =     0.00001610    0.00001887    0.00000000
     atom   21 type  2   force =    -0.00013244    0.00000000    0.00000000
     atom   22 type  2   force =    -0.00011133    0.00000000    0.00000000
     atom   23 type  1   force =     0.00013265   -0.00002003    0.00000000
     atom   24 type  1   force =     0.00001610   -0.00001887    0.00000000
     atom   25 type  1   force =     0.00034220    0.00000000    0.00036497
     atom   26 type  1   force =     0.00018846    0.00000000   -0.00009206
     atom   27 type  1   force =     0.00008066    0.00000000   -0.00005659
     atom   28 type  1   force =    -0.00009801    0.00000000   -0.00002567
     atom   29 type  2   force =    -0.00000680    0.00000000   -0.00010514
     atom   30 type  2   force =    -0.00004603    0.00000000    0.00002382
     atom   31 type  1   force =    -0.00012397   -0.00003160    0.00006784
     atom   32 type  1   force =    -0.00004728   -0.00000329   -0.00009560
     atom   33 type  2   force =    -0.00008721    0.00000000   -0.00002425
     atom   34 type  2   force =    -0.00005782    0.00000000   -0.00013072
     atom   35 type  1   force =    -0.00012397    0.00003160    0.00006784
     atom   36 type  1   force =    -0.00004728    0.00000329   -0.00009560
     atom   37 type  1   force =     0.00008378    0.00000000    0.00009097
     atom   38 type  1   force =     0.00001336    0.00000000   -0.00001581
     atom   39 type  1   force =     0.00003615    0.00000000   -0.00015516
     atom   40 type  1   force =    -0.00012512    0.00000000   -0.00021873
     atom   41 type  3   force =     0.00004069    0.00000000   -0.00007023
     atom   42 type  3   force =     0.00004069    0.00000000    0.00007023
     atom   43 type  3   force =     0.00005013    0.00007663   -0.00001989
     atom   44 type  3   force =     0.00005013    0.00007663    0.00001989
     atom   45 type  3   force =    -0.00009216   -0.00009563   -0.00009418
     atom   46 type  3   force =    -0.00009216   -0.00009563    0.00009418
     atom   47 type  3   force =     0.00005013   -0.00007663   -0.00001989
     atom   48 type  3   force =     0.00005013   -0.00007663    0.00001989
     atom   49 type  3   force =    -0.00009216    0.00009563   -0.00009418
     atom   50 type  3   force =    -0.00009216    0.00009563    0.00009418
     The non-local contrib.  to forces
     atom    1 type  1   force =     1.61860766    0.00000000    0.52171271
     atom    2 type  1   force =     0.00162282    0.00000000    0.99967135
     atom    3 type  1   force =     0.01017092    0.00000000   -1.34974948
     atom    4 type  1   force =    -0.04126836    0.00000000   -1.37859347
     atom    5 type  2   force =    -0.00096155    0.00000000    0.03454478
     atom    6 type  2   force =    -0.00291654    0.00000000    0.04499447
     atom    7 type  1   force =     0.00186879   -0.11807584   -0.06230252
     atom    8 type  1   force =    -0.04433738   -0.12309702    0.01681281
     atom    9 type  2   force =    -0.01267448    0.00000000    0.05137217
     atom   10 type  2   force =     0.00789875    0.00000000    0.03525225
     atom   11 type  1   force =     0.00186879    0.11807584   -0.06230252
     atom   12 type  1   force =    -0.04433738    0.12309702    0.01681281
     atom   13 type  1   force =     0.00723147    0.00000000   -0.15399639
     atom   14 type  1   force =    -0.02200644    0.00000000   -0.14986531
     atom   15 type  1   force =    -0.02346610    0.00000000   -0.06354901
     atom   16 type  1   force =    -0.00186998    0.00000000    0.18935459
     atom   17 type  2   force =    -0.00446243    0.00000000    0.00000000
     atom   18 type  2   force =    -0.01015033    0.00000000    0.00000000
     atom   19 type  1   force =     0.01947942    0.09316753    0.00000000
     atom   20 type  1   force =    -0.01142730    0.08896861    0.00000000
     atom   21 type  2   force =    -0.00539304    0.00000000    0.00000000
     atom   22 type  2   force =     0.00166394    0.00000000    0.00000000
     atom   23 type  1   force =     0.01947942   -0.09316753    0.00000000
     atom   24 type  1   force =    -0.01142730   -0.08896861    0.00000000
     atom   25 type  1   force =    -0.02346610    0.00000000    0.06354901
     atom   26 type  1   force =    -0.00186998    0.00000000   -0.18935459
     atom   27 type  1   force =     0.00723147    0.00000000    0.15399639
     atom   28 type  1   force =    -0.02200644    0.00000000    0.14986531
     atom   29 type  2   force =    -0.00096155    0.00000000   -0.03454478
     atom   30 type  2   force =    -0.00291654    0.00000000   -0.04499447
     atom   31 type  1   force =     0.00186879   -0.11807584    0.06230252
     atom   32 type  1   force =    -0.04433738   -0.12309702   -0.01681281
     atom   33 type  2   force =    -0.01267448    0.00000000   -0.05137217
     atom   34 type  2   force =     0.00789875    0.00000000   -0.03525225
     atom   35 type  1   force =     0.00186879    0.11807584    0.06230252
     atom   36 type  1   force =    -0.04433738    0.12309702   -0.01681281
     atom   37 type  1   force =     0.01017092    0.00000000    1.34974948
     atom   38 type  1   force =    -0.04126836    0.00000000    1.37859347
     atom   39 type  1   force =     1.61860766    0.00000000   -0.52171271
     atom   40 type  1   force =     0.00162282    0.00000000   -0.99967135
     atom   41 type  3   force =    -0.10036486    0.00000000    0.01520108
     atom   42 type  3   force =    -0.10036486    0.00000000   -0.01520108
     atom   43 type  3   force =    -0.00058273   -0.08667908    0.05498048
     atom   44 type  3   force =    -0.00058273   -0.08667908   -0.05498048
     atom   45 type  3   force =     0.00146352   -0.08709482    0.05647197
     atom   46 type  3   force =     0.00146352   -0.08709482   -0.05647197
     atom   47 type  3   force =    -0.00058273    0.08667908    0.05498048
     atom   48 type  3   force =    -0.00058273    0.08667908   -0.05498048
     atom   49 type  3   force =     0.00146352    0.08709482    0.05647197
     atom   50 type  3   force =     0.00146352    0.08709482   -0.05647197
     The ionic contribution  to forces
     atom    1 type  1   force =    -3.66974411    0.00000012  -94.40327187
     atom    2 type  1   force =     0.66529099    0.00000014  -98.27194673
     atom    3 type  1   force =    -0.27001787   -0.00000022  -89.03931484
     atom    4 type  1   force =     0.34466754   -0.00000023  -88.97035645
     atom    5 type  2   force =     0.18651286   -0.00000277 -165.47764348
     atom    6 type  2   force =    -0.36776310   -0.00000271 -166.68708781
     atom    7 type  1   force =     0.31734105   -0.49818974  -62.88135259
     atom    8 type  1   force =    -0.00212346   -0.27932482  -65.49265067
     atom    9 type  2   force =    -1.99244100    0.00000310 -168.44908467
     atom   10 type  2   force =     1.77033295    0.00000267 -172.57922157
     atom   11 type  1   force =     0.31734105    0.49819038  -62.88135022
     atom   12 type  1   force =    -0.00212346    0.27932544  -65.49264851
     atom   13 type  1   force =    -0.22822849   -0.00000219  -38.44799490
     atom   14 type  1   force =     0.34326771   -0.00000219  -38.51828320
     atom   15 type  1   force =    -0.12078040    0.00000965  -25.43248535
     atom   16 type  1   force =     0.26493675    0.00000916  -27.42586192
     atom   17 type  2   force =    -0.30114127    0.00000824   -0.00047771
     atom   18 type  2   force =     0.09037561    0.00000831   -0.00047692
     atom   19 type  1   force =     0.04799813    0.81684302   -0.00009037
     atom   20 type  1   force =    -0.04917893    0.84418196   -0.00008708
     atom   21 type  2   force =     0.73813539    0.00011581   -0.00025947
     atom   22 type  2   force =    -0.93880272    0.00011609   -0.00025120
     atom   23 type  1   force =     0.04800005   -0.81698261   -0.00009037
     atom   24 type  1   force =    -0.04917790   -0.84432229   -0.00008708
     atom   25 type  1   force =    -0.12077432    0.00000965   25.43227082
     atom   26 type  1   force =     0.26493933    0.00000916   27.42568695
     atom   27 type  1   force =    -0.22822895   -0.00000219   38.44828286
     atom   28 type  1   force =     0.34326892   -0.00000219   38.51857228
     atom   29 type  2   force =     0.18651370   -0.00000277  165.47797129
     atom   30 type  2   force =    -0.36776216   -0.00000271  166.68741340
     atom   31 type  1   force =     0.31734254   -0.49821627   62.88142339
     atom   32 type  1   force =    -0.00212358   -0.27934697   65.49272516
     atom   33 type  2   force =    -1.99245684    0.00000310  168.44923218
     atom   34 type  2   force =     1.77034234    0.00000267  172.57938704
     atom   35 type  1   force =     0.31734254    0.49821691   62.88142102
     atom   36 type  1   force =    -0.00212359    0.27934759   65.49272299
     atom   37 type  1   force =    -0.27002781   -0.00000022   89.03934187
     atom   38 type  1   force =     0.34467863   -0.00000023   88.97038326
     atom   39 type  1   force =    -3.66977626    0.00000012   94.40341956
     atom   40 type  1   force =     0.66529373    0.00000014   98.27202913
     atom   41 type  3   force =     2.72400507    0.00000002  -15.81116867
     atom   42 type  3   force =     2.72403795    0.00000002   15.81114801
     atom   43 type  3   force =    -0.07781435    2.24268170  -16.81439411
     atom   44 type  3   force =    -0.07781221    2.24288967   16.81442094
     atom   45 type  3   force =     0.04102307    2.23297891  -16.88333070
     atom   46 type  3   force =     0.04101918    2.23318776   16.88336010
     atom   47 type  3   force =    -0.07781435   -2.24268173  -16.81439408
     atom   48 type  3   force =    -0.07781221   -2.24288970   16.81442090
     atom   49 type  3   force =     0.04102307   -2.23297894  -16.88333066
     atom   50 type  3   force =     0.04101918   -2.23318778   16.88336007
     The local contribution  to forces
     atom    1 type  1   force =     2.01014816    0.00000000   93.78656090
     atom    2 type  1   force =    -0.62017504    0.00000000   97.17816138
     atom    3 type  1   force =     0.25035628   -0.00000000   90.45093999
     atom    4 type  1   force =    -0.29430226    0.00000000   90.41992850
     atom    5 type  2   force =    -0.18760316   -0.00000000  165.49195119
     atom    6 type  2   force =     0.37280807    0.00000000  166.67610307
     atom    7 type  1   force =    -0.31966227    0.63091303   62.94126850
     atom    8 type  1   force =     0.04640620    0.42273209   65.45836498
     atom    9 type  2   force =     1.98305694    0.00000000  168.34756413
     atom   10 type  2   force =    -1.75353347    0.00000000  172.48786299
     atom   11 type  1   force =    -0.31966227   -0.63091303   62.94126850
     atom   12 type  1   force =     0.04640620   -0.42273209   65.45836498
     atom   13 type  1   force =     0.21960449    0.00000000   38.60366480
     atom   14 type  1   force =    -0.32002909   -0.00000000   38.67030934
     atom   15 type  1   force =     0.14317905    0.00000000   25.49180773
     atom   16 type  1   force =    -0.26169500    0.00000000   27.23568424
     atom   17 type  2   force =     0.30420877    0.00000000   -0.00582653
     atom   18 type  2   force =    -0.07876291    0.00000000   -0.00583412
     atom   19 type  1   force =    -0.06720138   -0.90875344   -0.00245987
     atom   20 type  1   force =     0.06057854   -0.93186096   -0.00246768
     atom   21 type  2   force =    -0.73297963    0.00000000   -0.00605167
     atom   22 type  2   force =     0.93719178   -0.00000000   -0.00606586
     atom   23 type  1   force =    -0.06720315    0.90840645   -0.00245987
     atom   24 type  1   force =     0.06057759    0.93151458   -0.00246768
     atom   25 type  1   force =     0.14319120   -0.00000000  -25.49358136
     atom   26 type  1   force =    -0.26169603    0.00000000  -27.23746664
     atom   27 type  1   force =     0.21960291    0.00000000  -38.60543751
     atom   28 type  1   force =    -0.32003013   -0.00000000  -38.67207913
     atom   29 type  2   force =    -0.18759582   -0.00000000 -165.49797541
     atom   30 type  2   force =     0.37279978    0.00000000 -166.68211923
     atom   31 type  1   force =    -0.31963987    0.63097167  -62.94371288
     atom   32 type  1   force =     0.04638121    0.42277777  -65.46082285
     atom   33 type  2   force =     1.98308114   -0.00000000 -168.35343793
     atom   34 type  2   force =    -1.75356292    0.00000000 -172.49365058
     atom   35 type  1   force =    -0.31963987   -0.63097167  -62.94371288
     atom   36 type  1   force =     0.04638121   -0.42277777  -65.46082285
     atom   37 type  1   force =     0.25036689   -0.00000000  -90.45464810
     atom   38 type  1   force =    -0.29430998   -0.00000000  -90.42364658
     atom   39 type  1   force =     2.01016647    0.00000000  -93.78816526
     atom   40 type  1   force =    -0.62020877   -0.00000000  -97.17963025
     atom   41 type  3   force =    -2.62581142   -0.00000000   15.78181494
     atom   42 type  3   force =    -2.62581142    0.00000000  -15.78181494
     atom   43 type  3   force =     0.07591848   -2.13951712   16.77559605
     atom   44 type  3   force =     0.07591848   -2.13951712  -16.77559605
     atom   45 type  3   force =    -0.04033512   -2.12939022   16.84630585
     atom   46 type  3   force =    -0.04033512   -2.12939022  -16.84630585
     atom   47 type  3   force =     0.07591848    2.13951712   16.77559605
     atom   48 type  3   force =     0.07591848    2.13951712  -16.77559605
     atom   49 type  3   force =    -0.04033512    2.12939022   16.84630585
     atom   50 type  3   force =    -0.04033512    2.12939022  -16.84630585
     The core correction contribution to forces
     atom    1 type  1   force =    -0.01588301    0.00000000   -0.00577428
     atom    2 type  1   force =     0.00007222   -0.00000000   -0.00936053
     atom    3 type  1   force =    -0.00006911    0.00000000    0.01282456
     atom    4 type  1   force =     0.00037517   -0.00000000    0.01307358
     atom    5 type  2   force =     0.00000000    0.00000000    0.00000000
     atom    6 type  2   force =     0.00000000    0.00000000    0.00000000
     atom    7 type  1   force =    -0.00016753    0.00049955    0.00070940
     atom    8 type  1   force =     0.00056410    0.00068307   -0.00003734
     atom    9 type  2   force =     0.00000000    0.00000000    0.00000000
     atom   10 type  2   force =     0.00000000    0.00000000    0.00000000
     atom   11 type  1   force =    -0.00016753   -0.00049955    0.00070939
     atom   12 type  1   force =     0.00056410   -0.00068307   -0.00003734
     atom   13 type  1   force =    -0.00008496   -0.00000000    0.00226484
     atom   14 type  1   force =     0.00022138    0.00000000    0.00225085
     atom   15 type  1   force =     0.00025234   -0.00000000    0.00069621
     atom   16 type  1   force =     0.00001752   -0.00000000   -0.00225669
     atom   17 type  2   force =     0.00000000    0.00000000    0.00000000
     atom   18 type  2   force =     0.00000000    0.00000000    0.00000000
     atom   19 type  1   force =    -0.00020876   -0.00036547   -0.00000203
     atom   20 type  1   force =     0.00010708   -0.00030220   -0.00000204
     atom   21 type  2   force =     0.00000000    0.00000000    0.00000000
     atom   22 type  2   force =     0.00000000    0.00000000    0.00000000
     atom   23 type  1   force =    -0.00020876    0.00036496   -0.00000203
     atom   24 type  1   force =     0.00010708    0.00030171   -0.00000204
     atom   25 type  1   force =     0.00025232   -0.00000000   -0.00069860
     atom   26 type  1   force =     0.00001753    0.00000000    0.00225450
     atom   27 type  1   force =    -0.00008496   -0.00000000   -0.00226686
     atom   28 type  1   force =     0.00022139    0.00000000   -0.00225289
     atom   29 type  2   force =     0.00000000    0.00000000    0.00000000
     atom   30 type  2   force =     0.00000000    0.00000000    0.00000000
     atom   31 type  1   force =    -0.00016747    0.00049982   -0.00071136
     atom   32 type  1   force =     0.00056402    0.00068338    0.00003534
     atom   33 type  2   force =     0.00000000    0.00000000    0.00000000
     atom   34 type  2   force =     0.00000000    0.00000000    0.00000000
     atom   35 type  1   force =    -0.00016747   -0.00049982   -0.00071136
     atom   36 type  1   force =     0.00056402   -0.00068338    0.00003534
     atom   37 type  1   force =    -0.00006918    0.00000000   -0.01282864
     atom   38 type  1   force =     0.00037526   -0.00000000   -0.01307767
     atom   39 type  1   force =    -0.01588364    0.00000000    0.00577209
     atom   40 type  1   force =     0.00007223    0.00000000    0.00935805
     atom   41 type  3   force =     0.00000000    0.00000000    0.00000000
     atom   42 type  3   force =     0.00000000    0.00000000    0.00000000
     atom   43 type  3   force =     0.00000000    0.00000000    0.00000000
     atom   44 type  3   force =     0.00000000    0.00000000    0.00000000
     atom   45 type  3   force =     0.00000000    0.00000000    0.00000000
     atom   46 type  3   force =     0.00000000    0.00000000    0.00000000
     atom   47 type  3   force =     0.00000000    0.00000000    0.00000000
     atom   48 type  3   force =     0.00000000    0.00000000    0.00000000
     atom   49 type  3   force =     0.00000000    0.00000000    0.00000000
     atom   50 type  3   force =     0.00000000    0.00000000    0.00000000
     The Hubbard contrib.    to forces
     atom    1 type  1   force =     0.00000000    0.00000000    0.00000000
     atom    2 type  1   force =     0.00000000    0.00000000    0.00000000
     atom    3 type  1   force =     0.00000000    0.00000000    0.00000000
     atom    4 type  1   force =     0.00000000    0.00000000    0.00000000
     atom    5 type  2   force =     0.00000000    0.00000000    0.00000000
     atom    6 type  2   force =     0.00000000    0.00000000    0.00000000
     atom    7 type  1   force =     0.00000000    0.00000000    0.00000000
     atom    8 type  1   force =     0.00000000    0.00000000    0.00000000
     atom    9 type  2   force =     0.00000000    0.00000000    0.00000000
     atom   10 type  2   force =     0.00000000    0.00000000    0.00000000
     atom   11 type  1   force =     0.00000000    0.00000000    0.00000000
     atom   12 type  1   force =     0.00000000    0.00000000    0.00000000
     atom   13 type  1   force =     0.00000000    0.00000000    0.00000000
     atom   14 type  1   force =     0.00000000    0.00000000    0.00000000
     atom   15 type  1   force =     0.00000000    0.00000000    0.00000000
     atom   16 type  1   force =     0.00000000    0.00000000    0.00000000
     atom   17 type  2   force =     0.00000000    0.00000000    0.00000000
     atom   18 type  2   force =     0.00000000    0.00000000    0.00000000
     atom   19 type  1   force =     0.00000000    0.00000000    0.00000000
     atom   20 type  1   force =     0.00000000    0.00000000    0.00000000
     atom   21 type  2   force =     0.00000000    0.00000000    0.00000000
     atom   22 type  2   force =     0.00000000    0.00000000    0.00000000
     atom   23 type  1   force =     0.00000000    0.00000000    0.00000000
     atom   24 type  1   force =     0.00000000    0.00000000    0.00000000
     atom   25 type  1   force =     0.00000000    0.00000000    0.00000000
     atom   26 type  1   force =     0.00000000    0.00000000    0.00000000
     atom   27 type  1   force =     0.00000000    0.00000000    0.00000000
     atom   28 type  1   force =     0.00000000    0.00000000    0.00000000
     atom   29 type  2   force =     0.00000000    0.00000000    0.00000000
     atom   30 type  2   force =     0.00000000    0.00000000    0.00000000
     atom   31 type  1   force =     0.00000000    0.00000000    0.00000000
     atom   32 type  1   force =     0.00000000    0.00000000    0.00000000
     atom   33 type  2   force =     0.00000000    0.00000000    0.00000000
     atom   34 type  2   force =     0.00000000    0.00000000    0.00000000
     atom   35 type  1   force =     0.00000000    0.00000000    0.00000000
     atom   36 type  1   force =     0.00000000    0.00000000    0.00000000
     atom   37 type  1   force =     0.00000000    0.00000000    0.00000000
     atom   38 type  1   force =     0.00000000    0.00000000    0.00000000
     atom   39 type  1   force =     0.00000000    0.00000000    0.00000000
     atom   40 type  1   force =     0.00000000    0.00000000    0.00000000
     atom   41 type  3   force =     0.00000000    0.00000000    0.00000000
     atom   42 type  3   force =     0.00000000    0.00000000    0.00000000
     atom   43 type  3   force =     0.00000000    0.00000000    0.00000000
     atom   44 type  3   force =     0.00000000    0.00000000    0.00000000
     atom   45 type  3   force =     0.00000000    0.00000000    0.00000000
     atom   46 type  3   force =     0.00000000    0.00000000    0.00000000
     atom   47 type  3   force =     0.00000000    0.00000000    0.00000000
     atom   48 type  3   force =     0.00000000    0.00000000    0.00000000
     atom   49 type  3   force =     0.00000000    0.00000000    0.00000000
     atom   50 type  3   force =     0.00000000    0.00000000    0.00000000
     The SCF correction term to forces
     atom    1 type  1   force =     0.00000306   -0.00000001   -0.00000733
     atom    2 type  1   force =    -0.00000430   -0.00000001   -0.00000777
     atom    3 type  1   force =     0.00001801    0.00000002   -0.00001012
     atom    4 type  1   force =    -0.00001858    0.00000002   -0.00000906
     atom    5 type  2   force =    -0.00000755    0.00000009   -0.00000712
     atom    6 type  2   force =     0.00000804    0.00000009    0.00001547
     atom    7 type  1   force =    -0.00000153   -0.00000623    0.00000282
     atom    8 type  1   force =     0.00000176    0.00000127    0.00000498
     atom    9 type  2   force =     0.00001432   -0.00000008    0.00001121
     atom   10 type  2   force =    -0.00001389   -0.00000008    0.00001091
     atom   11 type  1   force =    -0.00000153    0.00000620    0.00000281
     atom   12 type  1   force =     0.00000176   -0.00000130    0.00000497
     atom   13 type  1   force =     0.00000752    0.00000004    0.00000773
     atom   14 type  1   force =    -0.00000746    0.00000004    0.00000664
     atom   15 type  1   force =     0.00000936   -0.00000005    0.00001619
     atom   16 type  1   force =    -0.00000928   -0.00000005    0.00001640
     atom   17 type  2   force =     0.00001309    0.00000016    0.00002033
     atom   18 type  2   force =    -0.00001337    0.00000016    0.00002033
     atom   19 type  1   force =    -0.00000268    0.00001111    0.00000743
     atom   20 type  1   force =     0.00000290    0.00000342    0.00000745
     atom   21 type  2   force =    -0.00000315   -0.00000016    0.00001974
     atom   22 type  2   force =     0.00000208   -0.00000016    0.00001981
     atom   23 type  1   force =    -0.00000268   -0.00001106    0.00000743
     atom   24 type  1   force =     0.00000290   -0.00000337    0.00000745
     atom   25 type  1   force =     0.00000934   -0.00000005   -0.00000444
     atom   26 type  1   force =    -0.00000925   -0.00000005   -0.00000507
     atom   27 type  1   force =     0.00000745    0.00000004    0.00000004
     atom   28 type  1   force =    -0.00000740    0.00000004    0.00000113
     atom   29 type  2   force =    -0.00000755    0.00000009    0.00000847
     atom   30 type  2   force =     0.00000805    0.00000009   -0.00001434
     atom   31 type  1   force =    -0.00000158   -0.00000658   -0.00000270
     atom   32 type  1   force =     0.00000181    0.00000093   -0.00000517
     atom   33 type  2   force =     0.00001410   -0.00000008   -0.00001125
     atom   34 type  2   force =    -0.00001365   -0.00000008   -0.00001260
     atom   35 type  1   force =    -0.00000158    0.00000655   -0.00000269
     atom   36 type  1   force =     0.00000181   -0.00000095   -0.00000515
     atom   37 type  1   force =     0.00001792    0.00000002    0.00000567
     atom   38 type  1   force =    -0.00001849    0.00000002    0.00000463
     atom   39 type  1   force =     0.00000293   -0.00000001    0.00000280
     atom   40 type  1   force =    -0.00000419   -0.00000001    0.00000326
     atom   41 type  3   force =     0.00000027   -0.00000000   -0.00000143
     atom   42 type  3   force =     0.00000028   -0.00000000    0.00000072
     atom   43 type  3   force =     0.00000172   -0.00000112   -0.00000128
     atom   44 type  3   force =     0.00000171   -0.00000114    0.00000057
     atom   45 type  3   force =    -0.00000177   -0.00000055   -0.00000169
     atom   46 type  3   force =    -0.00000176   -0.00000057    0.00000098
     atom   47 type  3   force =     0.00000172    0.00000113   -0.00000129
     atom   48 type  3   force =     0.00000171    0.00000115    0.00000057
     atom   49 type  3   force =    -0.00000177    0.00000055   -0.00000170
     atom   50 type  3   force =    -0.00000176    0.00000058    0.00000098

     Total force =     0.001130     Total SCF correction =     0.000089

     BFGS Geometry Optimization
     Energy error            =      0.0E+00 Ry
     Gradient error          =      3.6E-04 Ry/Bohr

     number of scf cycles    =   1
     number of bfgs steps    =   0

     energy             new  =   -3439.9210813941 Ry

     new trust radius        =       0.0005002990 bohr
     new conv_thr            =       0.0000000010 Ry


ATOMIC_POSITIONS (crystal)
O             0.0226691285        0.5000000000        0.2631832284
O             0.4767673925        0.5000000000        0.2673286492
O            -0.0019115372        0.0000000000        0.2902621878
O             0.4964774308        0.0000000000        0.2903483456
Ru            0.2475089622        0.0000000000        0.3608687452
Ru            0.7479934363        0.0000000000        0.3598101069
O             0.2469573294        0.3111507749        0.3562117624
O             0.7499503937        0.3123215486        0.3530639913
Ru           -0.0002225440        0.5000000000        0.3559387827
Ru            0.4990613458        0.5000000000        0.3498530001
O             0.2469573294        0.6888492251        0.3562117624
O             0.7499503937        0.6876784514        0.3530639913
O            -0.0038475042        0.0000000000        0.4123732542
O             0.4983972369        0.0000000000        0.4124062233
O            -0.0032856451        0.5000000000        0.4453893031
O             0.4977838118        0.5000000000        0.4426698194
Ru           -0.0035179636        0.0000000000        0.5000010000
Ru            0.4969938420        0.0000000000        0.5000010000
O             0.2463345631        0.1866310039        0.5000010000
O             0.7461546365        0.1868269424        0.5000010000
Ru            0.2513472976        0.5000000000        0.5000010000
Ru            0.7456412523        0.5000000000        0.5000010000
O             0.2463345631        0.8133699961        0.5000010000
O             0.7461546365        0.8131740576        0.5000010000
O            -0.0032856451        0.5000000000        0.5546116969
O             0.4977838118        0.5000000000        0.5573311806
O            -0.0038475042        0.0000000000        0.5876277458
O             0.4983972369        0.0000000000        0.5875947767
Ru            0.2475089622        0.0000000000        0.6391322548
Ru            0.7479934363        0.0000000000        0.6401908931
O             0.2469573294        0.3111507749        0.6437892376
O             0.7499503937        0.3123215486        0.6469370087
Ru           -0.0002225440        0.5000000000        0.6440622173
Ru            0.4990613458        0.5000000000        0.6501479999
O             0.2469573294        0.6888492251        0.6437892376
O             0.7499503937        0.6876784514        0.6469370087
O            -0.0019115372        0.0000000000        0.7097398122
O             0.4964774308        0.0000000000        0.7096536544
O             0.0226691285        0.5000000000        0.7368177716
O             0.4767673925        0.5000000000        0.7326723508
H             0.1719355690        0.5000000000        0.2568329961
H             0.1719355690        0.5000000000        0.7431670039
H            -0.0008174533        0.1395406998        0.2652984903
H            -0.0008174533        0.1395406998        0.7347015097
H             0.4942029818        0.1385203886        0.2651718688
H             0.4942029818        0.1385203886        0.7348281312
H            -0.0008174533        0.8604593002        0.2652984903
H            -0.0008174533        0.8604593002        0.7347015097
H             0.4942029818        0.8614796114        0.2651718688
H             0.4942029818        0.8614796114        0.7348281312



     Writing config-only to output data dir /storage/home/mgm6007/ixd4/Maria/Strain1_Files/RuO2-110-0-02345/RuO2-110-0-02345.save/
     NEW-OLD atomic charge density approx. for the potential

     Check: negative core charge=   -0.000001

     negative rho (up, down):  1.025E-04 0.000E+00

     add environment contribution to local potential
     Polarization accuracy = 1.6E-12, # of iterations =  42

     total cpu time spent up to now is    16952.8 secs

     per-process dynamical memory:   204.1 Mb

     Self-consistent Calculation

     iteration #  1     ecut=    50.00 Ry     beta= 0.70
     Davidson diagonalization with overlap
     ethr =  1.00E-06,  avg # of iterations =  2.0

     Threshold (ethr) on eigenvalues was too large:
     Diagonalizing with lowered threshold

     Davidson diagonalization with overlap
     ethr =  2.81E-10,  avg # of iterations =  3.0

     negative rho (up, down):  1.009E-04 0.000E+00

     add environment contribution to local potential
     Polarization accuracy = 1.7E-12, # of iterations =  41

     total cpu time spent up to now is    17099.1 secs

     total energy              =   -3439.92108298 Ry
     estimated scf accuracy    <       0.00000104 Ry
     electrostatic embedding   =      -0.07060671 Ry
     cavitation energy         =       0.02039528 Ry
     PV energy                 =      -0.08349685 Ry
     correction to one-el term =     176.89713136 Ry

     iteration #  2     ecut=    50.00 Ry     beta= 0.70
     Davidson diagonalization with overlap
     ethr =  2.81E-10,  avg # of iterations =  2.0

     negative rho (up, down):  1.007E-04 0.000E+00

     add environment contribution to local potential
     Polarization accuracy = 1.7E-12, # of iterations =  41

     total cpu time spent up to now is    17238.6 secs

     total energy              =   -3439.92108298 Ry
     estimated scf accuracy    <       0.00000311 Ry
     electrostatic embedding   =      -0.07060421 Ry
     cavitation energy         =       0.02039517 Ry
     PV energy                 =      -0.08349697 Ry
     correction to one-el term =     176.89517952 Ry

     iteration #  3     ecut=    50.00 Ry     beta= 0.70
     Davidson diagonalization with overlap
     ethr =  2.81E-10,  avg # of iterations =  1.0

     negative rho (up, down):  9.967E-05 0.000E+00

     add environment contribution to local potential
     Polarization accuracy = 1.7E-12, # of iterations =  41

     total cpu time spent up to now is    17370.4 secs

     total energy              =   -3439.92108309 Ry
     estimated scf accuracy    <       0.00000006 Ry
     electrostatic embedding   =      -0.07060458 Ry
     cavitation energy         =       0.02039517 Ry
     PV energy                 =      -0.08349690 Ry
     correction to one-el term =     176.89517788 Ry

     iteration #  4     ecut=    50.00 Ry     beta= 0.70
     Davidson diagonalization with overlap
     ethr =  1.64E-11,  avg # of iterations =  2.0

     negative rho (up, down):  9.904E-05 0.000E+00

     add environment contribution to local potential
     Polarization accuracy = 1.7E-12, # of iterations =  41

     total cpu time spent up to now is    17508.5 secs

     total energy              =   -3439.92108308 Ry
     estimated scf accuracy    <       0.00000003 Ry
     electrostatic embedding   =      -0.07060303 Ry
     cavitation energy         =       0.02039513 Ry
     PV energy                 =      -0.08349686 Ry
     correction to one-el term =     176.89419631 Ry

     iteration #  5     ecut=    50.00 Ry     beta= 0.70
     Davidson diagonalization with overlap
     ethr =  8.31E-12,  avg # of iterations =  1.0

     negative rho (up, down):  9.894E-05 0.000E+00

     add environment contribution to local potential
     Polarization accuracy = 1.7E-12, # of iterations =  41

     total cpu time spent up to now is    17654.4 secs

     total energy              =   -3439.92108308 Ry
     estimated scf accuracy    <       0.00000002 Ry
     electrostatic embedding   =      -0.07060205 Ry
     cavitation energy         =       0.02039510 Ry
     PV energy                 =      -0.08349679 Ry
     correction to one-el term =     176.89360878 Ry

     iteration #  6     ecut=    50.00 Ry     beta= 0.70
     Davidson diagonalization with overlap
     ethr =  6.34E-12,  avg # of iterations =  1.0

     negative rho (up, down):  9.911E-05 0.000E+00

     add environment contribution to local potential
     Polarization accuracy = 1.7E-12, # of iterations =  41

     total cpu time spent up to now is    17797.4 secs

     total energy              =   -3439.92108307 Ry
     estimated scf accuracy    <          9.3E-09 Ry
     electrostatic embedding   =      -0.07060167 Ry
     cavitation energy         =       0.02039509 Ry
     PV energy                 =      -0.08349676 Ry
     correction to one-el term =     176.89345258 Ry

     iteration #  7     ecut=    50.00 Ry     beta= 0.70
     Davidson diagonalization with overlap
     ethr =  2.51E-12,  avg # of iterations =  1.0

     negative rho (up, down):  9.953E-05 0.000E+00

     add environment contribution to local potential
     Polarization accuracy = 1.7E-12, # of iterations =  41

     total cpu time spent up to now is    17940.6 secs

     total energy              =   -3439.92108307 Ry
     estimated scf accuracy    <          1.6E-09 Ry
     electrostatic embedding   =      -0.07060095 Ry
     cavitation energy         =       0.02039508 Ry
     PV energy                 =      -0.08349665 Ry
     correction to one-el term =     176.89324340 Ry

     iteration #  8     ecut=    50.00 Ry     beta= 0.70
     Davidson diagonalization with overlap
     ethr =  4.41E-13,  avg # of iterations =  1.0

     negative rho (up, down):  1.000E-04 0.000E+00

     add environment contribution to local potential
     Polarization accuracy = 1.6E-12, # of iterations =  42

     total cpu time spent up to now is    18072.9 secs

     total energy              =   -3439.92108307 Ry
     estimated scf accuracy    <          1.2E-09 Ry
     electrostatic embedding   =      -0.07060067 Ry
     cavitation energy         =       0.02039507 Ry
     PV energy                 =      -0.08349658 Ry
     correction to one-el term =     176.89317456 Ry

     iteration #  9     ecut=    50.00 Ry     beta= 0.70
     Davidson diagonalization with overlap
     ethr =  3.19E-13,  avg # of iterations =  1.0

     negative rho (up, down):  1.025E-04 0.000E+00

     the potential shift due to the Gaussian-smeared nuclei is    -1.3614 ev

     total cpu time spent up to now is    18221.1 secs

     End of self-consistent calculation

          k = 0.2500 0.2763 0.0000 ( 34692 PWs)   bands (ev):

   -76.2101 -76.1981 -75.8459 -75.8401 -75.8288 -75.8019 -75.7750 -75.7645
   -75.7636 -75.7588 -75.7342 -75.7224 -46.4893 -46.4774 -46.2655 -46.2535
   -46.1834 -46.1768 -46.1658 -46.1648 -46.0897 -46.0782 -46.0722 -46.0236
   -45.9169 -45.9069 -45.8950 -45.8804 -45.8687 -45.8324 -45.8281 -45.8206
   -45.8029 -45.7914 -45.7212 -45.7106 -45.7094 -45.6989 -45.6764 -45.6468
   -45.6414 -45.6354 -45.6103 -45.5666 -45.5615 -45.5451 -45.5325 -45.5208
   -25.2379 -25.2216 -25.1385 -25.1223 -22.5959 -22.5229 -22.3676 -22.1021
   -22.0737 -21.8952 -21.7561 -21.6993 -21.5038 -21.4584 -21.4364 -21.3669
   -21.3613 -21.3295 -21.2168 -21.1840 -21.1656 -21.1495 -20.8952 -20.7076
   -20.6835 -20.4166 -19.7811 -19.7493 -13.2079 -13.1917 -13.1459 -13.1298
   -10.9588 -10.7155 -10.7035 -10.6904 -10.5726 -10.5653 -10.5492 -10.0450
[...]
     atom   25 type  1   force =     0.14837248    0.00000000  -25.50001934
     atom   26 type  1   force =    -0.25956781    0.00000000  -27.22567381
     atom   27 type  1   force =     0.22858171   -0.00000000  -38.61192653
     atom   28 type  1   force =    -0.31795899    0.00000000  -38.68086176
     atom   29 type  2   force =    -0.20089045    0.00000000 -165.51687545
     atom   30 type  2   force =     0.36761786   -0.00000000 -166.72049695
     atom   31 type  1   force =    -0.32124622    0.63200351  -62.95100545
     atom   32 type  1   force =     0.04849978    0.42426305  -65.45676462
     atom   33 type  2   force =     1.99605574    0.00000000 -168.39820988
     atom   34 type  2   force =    -1.76036156    0.00000000 -172.46029594
     atom   35 type  1   force =    -0.32124622   -0.63200351  -62.95100545
     atom   36 type  1   force =     0.04849978   -0.42426305  -65.45676462
     atom   37 type  1   force =     0.26091803    0.00000000  -90.45998535
     atom   38 type  1   force =    -0.30129121   -0.00000000  -90.42587577
     atom   39 type  1   force =     2.01455480    0.00000000  -93.79309845
     atom   40 type  1   force =    -0.62500019    0.00000000  -97.18600589
     atom   41 type  3   force =    -2.62481847    0.00000000   15.78295472
     atom   42 type  3   force =    -2.62481847    0.00000000  -15.78295472
     atom   43 type  3   force =     0.07581047   -2.13957980   16.77513335
     atom   44 type  3   force =     0.07581047   -2.13957980  -16.77513335
     atom   45 type  3   force =    -0.03875988   -2.13002762   16.84739409
     atom   46 type  3   force =    -0.03875988   -2.13002762  -16.84739409
     atom   47 type  3   force =     0.07581047    2.13957980   16.77513335
     atom   48 type  3   force =     0.07581047    2.13957980  -16.77513335
     atom   49 type  3   force =    -0.03875988    2.13002762   16.84739409
     atom   50 type  3   force =    -0.03875988    2.13002762  -16.84739409
     The core correction contribution to forces
     atom    1 type  1   force =    -0.01587392   -0.00000000   -0.00577133
     atom    2 type  1   force =     0.00006499    0.00000000   -0.00934927
     atom    3 type  1   force =    -0.00008666    0.00000000    0.01282292
     atom    4 type  1   force =     0.00040066   -0.00000000    0.01308156
     atom    5 type  2   force =     0.00000000    0.00000000    0.00000000
     atom    6 type  2   force =     0.00000000    0.00000000    0.00000000
     atom    7 type  1   force =    -0.00017097    0.00049905    0.00070284
     atom    8 type  1   force =     0.00055985    0.00068093   -0.00003081
     atom    9 type  2   force =     0.00000000    0.00000000    0.00000000
     atom   10 type  2   force =     0.00000000    0.00000000    0.00000000
     atom   11 type  1   force =    -0.00017097   -0.00049905    0.00070284
     atom   12 type  1   force =     0.00055985   -0.00068093   -0.00003081
     atom   13 type  1   force =    -0.00009174    0.00000000    0.00226838
     atom   14 type  1   force =     0.00021286    0.00000000    0.00225140
     atom   15 type  1   force =     0.00025999   -0.00000000    0.00069127
     atom   16 type  1   force =     0.00002246   -0.00000000   -0.00224241
     atom   17 type  2   force =     0.00000000    0.00000000    0.00000000
     atom   18 type  2   force =     0.00000000    0.00000000    0.00000000
     atom   19 type  1   force =    -0.00020856   -0.00036412   -0.00000203
     atom   20 type  1   force =     0.00009931   -0.00030146   -0.00000203
     atom   21 type  2   force =     0.00000000    0.00000000    0.00000000
     atom   22 type  2   force =     0.00000000    0.00000000    0.00000000
     atom   23 type  1   force =    -0.00020856    0.00036361   -0.00000203
     atom   24 type  1   force =     0.00009931    0.00030097   -0.00000203
     atom   25 type  1   force =     0.00025997   -0.00000000   -0.00069367
     atom   26 type  1   force =     0.00002247    0.00000000    0.00224022
     atom   27 type  1   force =    -0.00009174    0.00000000   -0.00227039
     atom   28 type  1   force =     0.00021287   -0.00000000   -0.00225344
     atom   29 type  2   force =     0.00000000    0.00000000    0.00000000
     atom   30 type  2   force =     0.00000000    0.00000000    0.00000000
     atom   31 type  1   force =    -0.00017090    0.00049933   -0.00070480
     atom   32 type  1   force =     0.00055976    0.00068125    0.00002881
     atom   33 type  2   force =     0.00000000    0.00000000    0.00000000
     atom   34 type  2   force =     0.00000000    0.00000000    0.00000000
     atom   35 type  1   force =    -0.00017090   -0.00049933   -0.00070480
     atom   36 type  1   force =     0.00055976   -0.00068125    0.00002881
     atom   37 type  1   force =    -0.00008673    0.00000000   -0.01282699
     atom   38 type  1   force =     0.00040076    0.00000000   -0.01308566
     atom   39 type  1   force =    -0.01587456    0.00000000    0.00576916
     atom   40 type  1   force =     0.00006500   -0.00000000    0.00934679
     atom   41 type  3   force =     0.00000000    0.00000000    0.00000000
     atom   42 type  3   force =     0.00000000    0.00000000    0.00000000
     atom   43 type  3   force =     0.00000000    0.00000000    0.00000000
     atom   44 type  3   force =     0.00000000    0.00000000    0.00000000
     atom   45 type  3   force =     0.00000000    0.00000000    0.00000000
     atom   46 type  3   force =     0.00000000    0.00000000    0.00000000
     atom   47 type  3   force =     0.00000000    0.00000000    0.00000000
     atom   48 type  3   force =     0.00000000    0.00000000    0.00000000
     atom   49 type  3   force =     0.00000000    0.00000000    0.00000000
     atom   50 type  3   force =     0.00000000    0.00000000    0.00000000
     The Hubbard contrib.    to forces
     atom    1 type  1   force =     0.00000000    0.00000000    0.00000000
     atom    2 type  1   force =     0.00000000    0.00000000    0.00000000
     atom    3 type  1   force =     0.00000000    0.00000000    0.00000000
     atom    4 type  1   force =     0.00000000    0.00000000    0.00000000
     atom    5 type  2   force =     0.00000000    0.00000000    0.00000000
     atom    6 type  2   force =     0.00000000    0.00000000    0.00000000
     atom    7 type  1   force =     0.00000000    0.00000000    0.00000000
     atom    8 type  1   force =     0.00000000    0.00000000    0.00000000
     atom    9 type  2   force =     0.00000000    0.00000000    0.00000000
     atom   10 type  2   force =     0.00000000    0.00000000    0.00000000
     atom   11 type  1   force =     0.00000000    0.00000000    0.00000000
     atom   12 type  1   force =     0.00000000    0.00000000    0.00000000
     atom   13 type  1   force =     0.00000000    0.00000000    0.00000000
     atom   14 type  1   force =     0.00000000    0.00000000    0.00000000
     atom   15 type  1   force =     0.00000000    0.00000000    0.00000000
     atom   16 type  1   force =     0.00000000    0.00000000    0.00000000
     atom   17 type  2   force =     0.00000000    0.00000000    0.00000000
     atom   18 type  2   force =     0.00000000    0.00000000    0.00000000
     atom   19 type  1   force =     0.00000000    0.00000000    0.00000000
     atom   20 type  1   force =     0.00000000    0.00000000    0.00000000
     atom   21 type  2   force =     0.00000000    0.00000000    0.00000000
     atom   22 type  2   force =     0.00000000    0.00000000    0.00000000
     atom   23 type  1   force =     0.00000000    0.00000000    0.00000000
     atom   24 type  1   force =     0.00000000    0.00000000    0.00000000
     atom   25 type  1   force =     0.00000000    0.00000000    0.00000000
     atom   26 type  1   force =     0.00000000    0.00000000    0.00000000
     atom   27 type  1   force =     0.00000000    0.00000000    0.00000000
     atom   28 type  1   force =     0.00000000    0.00000000    0.00000000
     atom   29 type  2   force =     0.00000000    0.00000000    0.00000000
     atom   30 type  2   force =     0.00000000    0.00000000    0.00000000
     atom   31 type  1   force =     0.00000000    0.00000000    0.00000000
     atom   32 type  1   force =     0.00000000    0.00000000    0.00000000
     atom   33 type  2   force =     0.00000000    0.00000000    0.00000000
     atom   34 type  2   force =     0.00000000    0.00000000    0.00000000
     atom   35 type  1   force =     0.00000000    0.00000000    0.00000000
     atom   36 type  1   force =     0.00000000    0.00000000    0.00000000
     atom   37 type  1   force =     0.00000000    0.00000000    0.00000000
     atom   38 type  1   force =     0.00000000    0.00000000    0.00000000
     atom   39 type  1   force =     0.00000000    0.00000000    0.00000000
     atom   40 type  1   force =     0.00000000    0.00000000    0.00000000
     atom   41 type  3   force =     0.00000000    0.00000000    0.00000000
     atom   42 type  3   force =     0.00000000    0.00000000    0.00000000
     atom   43 type  3   force =     0.00000000    0.00000000    0.00000000
     atom   44 type  3   force =     0.00000000    0.00000000    0.00000000
     atom   45 type  3   force =     0.00000000    0.00000000    0.00000000
     atom   46 type  3   force =     0.00000000    0.00000000    0.00000000
     atom   47 type  3   force =     0.00000000    0.00000000    0.00000000
     atom   48 type  3   force =     0.00000000    0.00000000    0.00000000
     atom   49 type  3   force =     0.00000000    0.00000000    0.00000000
     atom   50 type  3   force =     0.00000000    0.00000000    0.00000000
     The SCF correction term to forces
     atom    1 type  1   force =    -0.00000038   -0.00000000    0.00000043
     atom    2 type  1   force =     0.00000002    0.00000000    0.00000154
     atom    3 type  1   force =    -0.00000135   -0.00000000    0.00000169
     atom    4 type  1   force =     0.00000113   -0.00000000    0.00000093
     atom    5 type  2   force =     0.00000082    0.00000000    0.00000289
     atom    6 type  2   force =    -0.00000081    0.00000000    0.00000068
     atom    7 type  1   force =     0.00000058    0.00000016    0.00000093
     atom    8 type  1   force =    -0.00000056    0.00000026    0.00000034
     atom    9 type  2   force =    -0.00000108   -0.00000000    0.00000079
     atom   10 type  2   force =     0.00000096    0.00000000    0.00000134
     atom   11 type  1   force =     0.00000058   -0.00000016    0.00000093
     atom   12 type  1   force =    -0.00000056   -0.00000026    0.00000034
     atom   13 type  1   force =    -0.00000012    0.00000000    0.00000058
     atom   14 type  1   force =     0.00000019    0.00000000    0.00000068
     atom   15 type  1   force =    -0.00000082   -0.00000000    0.00000093
     atom   16 type  1   force =     0.00000060   -0.00000000    0.00000040
     atom   17 type  2   force =    -0.00000090    0.00000000    0.00000000
     atom   18 type  2   force =     0.00000102    0.00000000    0.00000000
     atom   19 type  1   force =     0.00000040   -0.00000010    0.00000000
     atom   20 type  1   force =    -0.00000028    0.00000049    0.00000000
     atom   21 type  2   force =     0.00000085   -0.00000000    0.00000000
     atom   22 type  2   force =     0.00000000   -0.00000000    0.00000000
     atom   23 type  1   force =     0.00000040    0.00000010    0.00000000
     atom   24 type  1   force =    -0.00000028   -0.00000049    0.00000000
     atom   25 type  1   force =    -0.00000081   -0.00000000   -0.00000093
     atom   26 type  1   force =     0.00000060   -0.00000000   -0.00000040
     atom   27 type  1   force =    -0.00000012    0.00000000   -0.00000058
     atom   28 type  1   force =     0.00000019    0.00000000   -0.00000068
     atom   29 type  2   force =     0.00000082    0.00000000   -0.00000290
     atom   30 type  2   force =    -0.00000080    0.00000000   -0.00000069
     atom   31 type  1   force =     0.00000058    0.00000016   -0.00000094
     atom   32 type  1   force =    -0.00000056    0.00000026   -0.00000034
     atom   33 type  2   force =    -0.00000108   -0.00000000   -0.00000080
     atom   34 type  2   force =     0.00000096   -0.00000000   -0.00000135
     atom   35 type  1   force =     0.00000058   -0.00000016   -0.00000094
     atom   36 type  1   force =    -0.00000056   -0.00000026   -0.00000034
     atom   37 type  1   force =    -0.00000135   -0.00000000   -0.00000169
     atom   38 type  1   force =     0.00000113   -0.00000000   -0.00000094
     atom   39 type  1   force =    -0.00000038    0.00000000   -0.00000043
     atom   40 type  1   force =     0.00000002   -0.00000000   -0.00000155
     atom   41 type  3   force =    -0.00000008   -0.00000000    0.00000014
     atom   42 type  3   force =    -0.00000008   -0.00000000   -0.00000014
     atom   43 type  3   force =    -0.00000012    0.00000013    0.00000018
     atom   44 type  3   force =    -0.00000012    0.00000013   -0.00000018
     atom   45 type  3   force =     0.00000011    0.00000000    0.00000021
     atom   46 type  3   force =     0.00000011    0.00000001   -0.00000021
     atom   47 type  3   force =    -0.00000012   -0.00000013    0.00000018
     atom   48 type  3   force =    -0.00000012   -0.00000013   -0.00000018
     atom   49 type  3   force =     0.00000011   -0.00000000    0.00000021
     atom   50 type  3   force =     0.00000011   -0.00000001   -0.00000021

     Total force =     0.000260     Total SCF correction =     0.000008
     Energy error            =      2.2E-07 Ry
     Gradient error          =      5.6E-05 Ry/Bohr

     bfgs converged in   9 scf cycles and   8 bfgs steps
     (criteria: energy <  1.0E-04 Ry, force <  1.0E-04 Ry/Bohr)

     End of BFGS Geometry Optimization

     Final energy             =   -3439.9210881311 Ry

     File /storage/home/mgm6007/ixd4/Maria/Strain1_Files/RuO2-110-0-02345/RuO2-110-0-02345.bfgs deleted, as requested
Begin final coordinates

ATOMIC_POSITIONS (crystal)
O             0.0226757063        0.5000000000        0.2631816966
O             0.4765889790        0.5000000000        0.2673851485
O            -0.0018623524        0.0000000000        0.2902401243
O             0.4964333317        0.0000000000        0.2903257718
Ru            0.2474542466        0.0000000000        0.3608714675
Ru            0.7479596583        0.0000000000        0.3598133616
O             0.2468747351        0.3111450770        0.3562204513
O             0.7498829819        0.3123251185        0.3530959627
Ru           -0.0002991294        0.5000000000        0.3559342497
Ru            0.4989815661        0.5000000000        0.3499036742
O             0.2468747351        0.6888549230        0.3562204513
O             0.7498829819        0.6876748815        0.3530959627
O            -0.0038379154        0.0000000000        0.4123782946
O             0.4983791833        0.0000000000        0.4124088673
O            -0.0030905718        0.5000000000        0.4453787253
O             0.4979427189        0.5000000000        0.4427024069
Ru           -0.0034253054        0.0000000000        0.5000010000
Ru            0.4970860695        0.0000000000        0.5000010000
O             0.2464590468        0.1866331450        0.5000010000
O             0.7462690161        0.1868283576        0.5000010000
Ru            0.2514193531        0.5000000000        0.5000010000
Ru            0.7458335098        0.5000000000        0.5000010000
O             0.2464590468        0.8133678550        0.5000010000
O             0.7462690161        0.8131726424        0.5000010000
O            -0.0030905718        0.5000000000        0.5546222747
O             0.4979427189        0.5000000000        0.5572985931
O            -0.0038379154        0.0000000000        0.5876227054
O             0.4983791833        0.0000000000        0.5875921327
Ru            0.2474542466        0.0000000000        0.6391295325
Ru            0.7479596583        0.0000000000        0.6401876384
O             0.2468747351        0.3111450770        0.6437805487
O             0.7498829819        0.3123251185        0.6469050373
Ru           -0.0002991294        0.5000000000        0.6440667503
Ru            0.4989815661        0.5000000000        0.6500973258
O             0.2468747351        0.6888549230        0.6437805487
O             0.7498829819        0.6876748815        0.6469050373
O            -0.0018623524        0.0000000000        0.7097618757
O             0.4964333317        0.0000000000        0.7096762282
O             0.0226757063        0.5000000000        0.7368193034
O             0.4765889790        0.5000000000        0.7326158515
H             0.1719488266        0.5000000000        0.2568319178
H             0.1719488266        0.5000000000        0.7431680822
H            -0.0007075818        0.1395600646        0.2652824569
H            -0.0007075818        0.1395600646        0.7347175431
H             0.4940378027        0.1384840061        0.2651399777
H             0.4940378027        0.1384840061        0.7348600223
H            -0.0007075818        0.8604399354        0.2652824569
H            -0.0007075818        0.8604399354        0.7347175431
H             0.4940378027        0.8615159939        0.2651399777
H             0.4940378027        0.8615159939        0.7348600223
End final coordinates



     Writing all to output data dir /storage/home/mgm6007/ixd4/Maria/Strain1_Files/RuO2-110-0-02345/RuO2-110-0-02345.save/
 
     init_run     :    114.20s CPU   2256.48s WALL (       1 calls)
     electrons    :   9785.19s CPU  29083.50s WALL (       9 calls)
     update_pot   :     13.48s CPU     13.49s WALL (       8 calls)
     forces       :     13.85s CPU     13.86s WALL (       9 calls)

     Called by init_run:
     wfcinit      :      0.49s CPU      0.49s WALL (       1 calls)
     potinit      :     79.95s CPU   1473.20s WALL (       1 calls)
     hinit0       :     33.31s CPU    782.23s WALL (       1 calls)

     Called by electrons:
     c_bands      :    176.49s CPU    176.58s WALL (     150 calls)
     sum_band     :     37.83s CPU     37.86s WALL (     150 calls)
     v_of_rho     :     17.71s CPU     17.76s WALL (     151 calls)
     newd         :     10.36s CPU     10.36s WALL (     151 calls)
     PAW_pot      :     18.37s CPU     18.37s WALL (     159 calls)
     mix_rho      :     90.32s CPU     90.33s WALL (     150 calls)

     Called by c_bands:
     init_us_2    :      2.06s CPU      2.06s WALL (     309 calls)
     init_us_2:cp :      2.06s CPU      2.06s WALL (     309 calls)
     cegterg      :    169.52s CPU    169.58s WALL (     150 calls)

     Called by *egterg:
     cdiaghg      :     22.84s CPU     22.85s WALL (     459 calls)
     h_psi        :     87.43s CPU     87.44s WALL (     476 calls)
     s_psi        :     13.98s CPU     13.99s WALL (     476 calls)
     g_psi        :      0.43s CPU      0.43s WALL (     325 calls)

     Called by h_psi:
     h_psi:calbec :     14.00s CPU     14.00s WALL (     476 calls)
     vloc_psi     :     58.44s CPU     58.45s WALL (     476 calls)
     add_vuspsi   :     13.99s CPU     13.99s WALL (     476 calls)

     General routines
     calbec       :     22.30s CPU     22.30s WALL (     670 calls)
     fft          :   2186.25s CPU   2186.36s WALL (    2060 calls)
     ffts         :     33.77s CPU     33.76s WALL (   53746 calls)
     fftw         :     55.50s CPU     55.49s WALL (  173790 calls)
     interpolate  :   2175.65s CPU   2175.74s WALL (     151 calls)
 
     Parallel routines
 
     Environ routines
 
     PWSCF        :      2h53m CPU      9h 0m WALL

 
   This run was terminated on:   1:13:20  19Jul2023            

=------------------------------------------------------------------------------=
   JOB DONE.
=------------------------------------------------------------------------------=
