
     Program PWSCF v.7.2 starts on 26Jul2023 at 11:16:13 
        Git branch: heads/qe-7.2
        Last git commit: b4c5e8deeb7d1863e7553a87b45f8d22c21926a5
        Last git commit date: Mon Mar 27 16:12:09 2023 +0000
        Last git commit subject: Merge branch 'merge_fix_hubbard' into 'develop'

     This program is part of the open-source Quantum ESPRESSO suite
     for quantum simulation of materials; please cite
         "P. Giannozzi et al., J. Phys.:Condens. Matter 21 395502 (2009);
         "P. Giannozzi et al., J. Phys.:Condens. Matter 29 465901 (2017);
         "P. Giannozzi et al., J. Chem. Phys. 152 154105 (2020);
          URL http://www.quantum-espresso.org", 
     in publications or presentations arising from this work. More details at
     http://www.quantum-espresso.org/quote

     Parallel version (MPI), running on    20 processors

     MPI processes distributed on     1 nodes
     103431 MiB available memory on the printing compute node when the environment starts
 
     Reading input from RuO2-110-0-03.in

     Current dimensions of program PWSCF are:
     Max number of different atomic species (ntypx) = 10
     Max number of k-points (npk) =  40000
     Max angular momentum in pseudopotentials (lmaxx) =  4
 
     Reading input from environ.in:
     * Environ restarting
     * setting up water environment
     * using electronic solvent mode
     * setting boundary derivatives method to SCCS default
     
     file O.pbe-n-kjpaw_psl.0.1.UPF: wavefunction(s)  2P renormalized
     Message from routine setup:
     using ibrav=0 with symmetry is DISCOURAGED, use correct ibrav instead
 
     R & G space division:  proc/nbgrp/npool/nimage =      20
     Subspace diagonalization in iterative solution of the eigenvalue problem:
     one sub-group per band group will be used
     scalapack distributed-memory algorithm (size of sub-group:  2*  2 procs)

 
     Parallelization info
     --------------------
     sticks:   dense  smooth     PW     G-vecs:    dense   smooth      PW
     Min         276     110     29                54982    13912    1877
     Max         277     111     30                54993    13923    1888
     Sum        5537    2217    585              1099789   278381   37601
 
     Using Slab Decomposition
 


     bravais-lattice index     =            0
     lattice parameter (alat)  =      12.3824  a.u.
     unit-cell volume          =    5825.9133 (a.u.)^3
     number of atoms/cell      =           44
     number of atomic types    =            3
     number of electrons       =       364.00
     number of Kohn-Sham states=          218
     kinetic-energy cutoff     =      50.0000  Ry
     charge density cutoff     =     500.0000  Ry
     scf convergence threshold =      1.0E-09
     mixing beta               =       0.7000
     number of iterations used =            8  local-TF  mixing
     energy convergence thresh.=      1.0E-04
     force convergence thresh. =      1.0E-04
     Exchange-correlation= PBE
                           (   1   4   3   4   0   0   0)
     nstep                     =          200


     ================================================================================
 
                                  Environ Setup Summary

     ================================================================================
 
     Please cite

          O. Andreussi, I. Dabo and N. Marzari, J. Chem. Phys. 136, 064102 (2012)

     in publications or presentations arising from this work.

     ================================================================================
 
     Parameters
     ==========

     compensation onset threshold      =               0.1000E+00
     static permittivity               =                    78.30
     surface tension in input (dyn/cm) =                    47.90
     surface tension in internal units =               0.6153E-04
     external pressure in input (GPa)  =                    -0.36
     external pressure in inter. units =              -0.2447E-04

     Solvent Boundary
     ================

     solvent mode                      =               electronic
     derivatives method                =                    chain
     numerical core for derivatives    =                      fft
     switching function adopted        =                     SCCS
     density limit for vacuum region   =               0.5000E-02
     density limit for bulk solvent    =               0.1000E-03

     Electrostatic Setup
     ===================

     electrostatic problem to solve    =              generalized
     numerical solver adopted          =                       cg
     type of auxiliary density adopted =                     none
     numerical core for poisson        =                      fft
     type of pbc corrections           =                parabolic
     numerical core for corrections    =                      1da

     ================================================================================
 

     celldm(1)=  12.382447  celldm(2)=   0.000000  celldm(3)=   0.000000
     celldm(4)=   0.000000  celldm(5)=   0.000000  celldm(6)=   0.000000

     crystal axes: (cart. coord. in units of alat)
               a(1) = (   1.000000   0.000000   0.000000 )  
               a(2) = (   0.000000   0.908473   0.000000 )  
               a(3) = (   0.000000   0.000000   3.377790 )  

     reciprocal axes: (cart. coord. in units 2 pi/alat)
               b(1) = (  1.000000  0.000000  0.000000 )  
               b(2) = (  0.000000  1.100748  0.000000 )  
               b(3) = (  0.000000  0.000000  0.296052 )  


     PseudoPot. # 1 for O  read from file:
     /gpfs/group/ixd4/default/Simon/pseudopotentials/materialscloud/SSSP_1.3.0_PBE_efficiency/O.pbe-n-kjpaw_psl.0.1.UPF
     MD5 check sum: 0234752ac141de4415c5fc33072bef88
     Pseudo is Projector augmented-wave + core cor, Zval =  6.0
     Generated using "atomic" code by A. Dal Corso  v.5.0.99 svn rev. 10869
     Shape of augmentation charge: BESSEL
     Using radial grid of 1095 points,  4 beta functions with: 
                l(1) =   0
                l(2) =   0
                l(3) =   1
                l(4) =   1
     Q(r) pseudized with 0 coefficients 


     PseudoPot. # 2 for Ru read from file:
     /gpfs/group/ixd4/default/Simon/pseudopotentials/materialscloud/SSSP_1.3.0_PBE_efficiency/Ru_ONCV_PBE-1.0.oncvpsp.upf
     MD5 check sum: be037bb81c227cfb9b1461a9f099f4bd
     Pseudo is Norm-conserving, Zval = 16.0
     Generated using ONCVPSP code by D. R. Hamann
     Using radial grid of 1458 points,  6 beta functions with: 
                l(1) =   0
                l(2) =   0
                l(3) =   1
                l(4) =   1
                l(5) =   2
                l(6) =   2

     PseudoPot. # 3 for H  read from file:
     /gpfs/group/ixd4/default/Simon/pseudopotentials/materialscloud/SSSP_1.3.0_PBE_efficiency/H.pbe-rrkjus_psl.1.0.0.UPF
     MD5 check sum: f52b6d4d1c606e5624b1dc7b2218f220
     Pseudo is Ultrasoft, Zval =  1.0
     Generated using "atomic" code by A. Dal Corso  v.5.1
     Using radial grid of  929 points,  2 beta functions with: 
                l(1) =   0
                l(2) =   0
     Q(r) pseudized with 0 coefficients 


     atomic species   valence    mass     pseudopotential
        O              6.00    15.99940     O ( 1.00)
        Ru            16.00   101.07000     Ru( 1.00)
        H              1.00     1.00794     H ( 1.00)

      2 Sym. Ops. (no inversion) found



   Cartesian axes

     site n.     atom                  positions (alat units)
         1           O   tau(   1) = (   0.0070050   0.4570842   0.9176752  )
         2           O   tau(   2) = (   0.4780830   0.4567716   0.9254017  )
         3           O   tau(   3) = (  -0.0008723   0.0007206   1.0432355  )
         4           O   tau(   4) = (   0.4968080  -0.0011951   1.0135142  )
         5           Ru  tau(   5) = (   0.2439411   0.0024745   1.2053940  )
         6           Ru  tau(   6) = (   0.7519411   0.0027040   1.2029083  )
         7           O   tau(   7) = (   0.2475600   0.2786874   1.2129544  )
         8           O   tau(   8) = (   0.7517832   0.2821538   1.2046143  )
         9           Ru  tau(   9) = (   0.0021863   0.4565734   1.2095677  )
        10           Ru  tau(  10) = (   0.5036744   0.4571120   1.1866517  )
        11           O   tau(  11) = (   0.2472539   0.6341398   1.2138375  )
        12           O   tau(  12) = (   0.7520493   0.6307511   1.2061459  )
        13           O   tau(  13) = (  -0.0035063   0.0015369   1.3916217  )
        14           O   tau(  14) = (   0.5016083   0.0020535   1.3930894  )
        15           O   tau(  15) = (  -0.0000773   0.4558879   1.5075580  )
        16           O   tau(  16) = (   0.4963743   0.4560866   1.4894002  )
        17           Ru  tau(  17) = (  -0.0047399   0.0022449   1.6888985  )
        18           Ru  tau(  18) = (   0.5013209   0.0014140   1.6888985  )
        19           O   tau(  19) = (   0.2503017   0.1749582   1.6888985  )
        20           O   tau(  20) = (   0.7467070   0.1813801   1.6888985  )
        21           Ru  tau(  21) = (   0.2552587   0.4558167   1.6888985  )
        22           Ru  tau(  22) = (   0.7439240   0.4559297   1.6888985  )
        23           O   tau(  23) = (   0.2503588   0.7371276   1.6888985  )
        24           O   tau(  24) = (   0.7465549   0.7306164   1.6888985  )
        25           O   tau(  25) = (  -0.0000773   0.4558879   1.8702357  )
        26           O   tau(  26) = (   0.4963743   0.4560866   1.8883935  )
        27           O   tau(  27) = (  -0.0035063   0.0015369   1.9861720  )
        28           O   tau(  28) = (   0.5016083   0.0020535   1.9847043  )
        29           Ru  tau(  29) = (   0.2439411   0.0024745   2.1723997  )
        30           Ru  tau(  30) = (   0.7519411   0.0027040   2.1748854  )
        31           O   tau(  31) = (   0.2475600   0.2786874   2.1648393  )
        32           O   tau(  32) = (   0.7517832   0.2821538   2.1731794  )
        33           Ru  tau(  33) = (   0.0021863   0.4565734   2.1682260  )
        34           Ru  tau(  34) = (   0.5036744   0.4571120   2.1911420  )
        35           O   tau(  35) = (   0.2472539   0.6341398   2.1639562  )
        36           O   tau(  36) = (   0.7520493   0.6307511   2.1716478  )
        37           O   tau(  37) = (  -0.0008723   0.0007206   2.3345616  )
        38           O   tau(  38) = (   0.4968080  -0.0011951   2.3642829  )
        39           O   tau(  39) = (   0.0070050   0.4570842   2.4601185  )
        40           O   tau(  40) = (   0.4780830   0.4567716   2.4523920  )
        41           H   tau(  41) = (   0.1511892   0.4597750   0.8643141  )
        42           H   tau(  42) = (   0.1511892   0.4597750   2.5134762  )
        43           H   tau(  43) = (   0.4957906   0.0600120   0.8803651  )
        44           H   tau(  44) = (   0.4957906   0.0600120   2.4974252  )

     number of k points=     2  Marzari-Vanderbilt smearing, width (Ry)=  0.0300
                       cart. coord. in units 2pi/alat
        k(    1) = (   0.2500000   0.2751871   0.0000000), wk =   1.0000000
        k(    2) = (  -0.2500000   0.2751871   0.0000000), wk =   1.0000000

     Dense  grid:  1099789 G-vectors     FFT dimensions: (  90,  81, 300)

     Smooth grid:   278381 G-vectors     FFT dimensions: (  60,  54, 192)

     Estimated max dynamical RAM per process >     180.08 MB

     Estimated total dynamical RAM >       3.52 GB

     Check: negative core charge=   -0.000001

     Initial potential from superposition of free atoms

     starting charge     363.9933, renormalised to     364.0000

     add environment contribution to local potential
     Polarization accuracy = 5.9E-12, # of iterations =  24

     negative rho (up, down):  3.165E-05 0.000E+00
     Starting wfcs are  236 randomized atomic wfcs
     Checking if some PAW data can be deallocated... 

     total cpu time spent up to now is      994.9 secs

     per-process dynamical memory:   149.8 Mb

     Self-consistent Calculation

     iteration #  1     ecut=    50.00 Ry     beta= 0.70
     Davidson diagonalization with overlap
     ethr =  1.00E-02,  avg # of iterations =  2.0

     total cpu time spent up to now is     1301.3 secs

     total energy              =   -3429.99297998 Ry
     estimated scf accuracy    <      10.25735110 Ry
     electrostatic embedding   =      -0.00176308 Ry
     cavitation energy         =       0.01971566 Ry
     PV energy                 =      -0.08308975 Ry
     correction to one-el term =     217.90012500 Ry

     iteration #  2     ecut=    50.00 Ry     beta= 0.70
     Davidson diagonalization with overlap
     ethr =  2.82E-03,  avg # of iterations =  2.0

     total cpu time spent up to now is     1584.4 secs

     total energy              =   -3432.25444781 Ry
     estimated scf accuracy    <       2.41740608 Ry
     electrostatic embedding   =      -0.00253872 Ry
     cavitation energy         =       0.01980458 Ry
     PV energy                 =      -0.08324365 Ry
     correction to one-el term =     217.90220750 Ry

     iteration #  3     ecut=    50.00 Ry     beta= 0.70
     Davidson diagonalization with overlap
     ethr =  6.64E-04,  avg # of iterations =  1.0

     total cpu time spent up to now is     1807.1 secs

     total energy              =   -3432.48827790 Ry
     estimated scf accuracy    <       0.40263785 Ry
     electrostatic embedding   =      -0.00287970 Ry
     cavitation energy         =       0.01986695 Ry
     PV energy                 =      -0.08332094 Ry
     correction to one-el term =     217.90309690 Ry

     iteration #  4     ecut=    50.00 Ry     beta= 0.70
     Davidson diagonalization with overlap
     ethr =  1.11E-04,  avg # of iterations =  2.0

     total cpu time spent up to now is     2104.1 secs

     total energy              =   -3432.52135274 Ry
     estimated scf accuracy    <       0.31788070 Ry
     electrostatic embedding   =      -0.00296818 Ry
     cavitation energy         =       0.02002965 Ry
     PV energy                 =      -0.08284297 Ry
     correction to one-el term =     217.90305362 Ry

     iteration #  5     ecut=    50.00 Ry     beta= 0.70
     Davidson diagonalization with overlap
     ethr =  8.73E-05,  avg # of iterations =  1.0

     add environment contribution to local potential
     Polarization accuracy = 5.0E-12, # of iterations =  35

     total cpu time spent up to now is     2407.5 secs

     total energy              =   -3432.52307344 Ry
     estimated scf accuracy    <       0.08555389 Ry
     electrostatic embedding   =      -0.00307758 Ry
     cavitation energy         =       0.02028697 Ry
     PV energy                 =      -0.08223697 Ry
     correction to one-el term =     217.90303632 Ry

     iteration #  6     ecut=    50.00 Ry     beta= 0.70
     Davidson diagonalization with overlap
     ethr =  2.35E-05,  avg # of iterations =  2.0

     add environment contribution to local potential
     Polarization accuracy = 2.6E-12, # of iterations =  38

     total cpu time spent up to now is     2680.9 secs

     total energy              =   -3432.55182422 Ry
     estimated scf accuracy    <       0.05417854 Ry
     electrostatic embedding   =      -0.03096630 Ry
     cavitation energy         =       0.02061673 Ry
     PV energy                 =      -0.08139161 Ry
     correction to one-el term =     194.99402835 Ry

     iteration #  7     ecut=    50.00 Ry     beta= 0.70
     Davidson diagonalization with overlap
     ethr =  1.49E-05,  avg # of iterations =  2.0

     add environment contribution to local potential
     Polarization accuracy = 9.2E-12, # of iterations =  40

     total cpu time spent up to now is     9467.7 secs

     total energy              =   -3432.55356207 Ry
     estimated scf accuracy    <       0.04148833 Ry
     electrostatic embedding   =      -0.03717810 Ry
     cavitation energy         =       0.02084367 Ry
     PV energy                 =      -0.08081122 Ry
     correction to one-el term =     192.64355923 Ry

     iteration #  8     ecut=    50.00 Ry     beta= 0.70
     Davidson diagonalization with overlap
     ethr =  1.14E-05,  avg # of iterations =  2.0

     add environment contribution to local potential
     Polarization accuracy = 3.7E-12, # of iterations =  49

     total cpu time spent up to now is    10122.7 secs

     total energy              =   -3432.55080979 Ry
     estimated scf accuracy    <       0.02943346 Ry
     electrostatic embedding   =      -0.04345359 Ry
     cavitation energy         =       0.02103773 Ry
     PV energy                 =      -0.08029164 Ry
     correction to one-el term =     190.78715473 Ry

     iteration #  9     ecut=    50.00 Ry     beta= 0.70
     Davidson diagonalization with overlap
     ethr =  8.09E-06,  avg # of iterations = 16.5

     negative rho (up, down):  5.663E-05 0.000E+00

     add environment contribution to local potential
     Polarization accuracy = 5.5E-12, # of iterations =  51

     total cpu time spent up to now is    10886.3 secs

     total energy              =   -3432.55341429 Ry
     estimated scf accuracy    <       0.04265658 Ry
     electrostatic embedding   =      -0.06295959 Ry
     cavitation energy         =       0.02143951 Ry
     PV energy                 =      -0.07925021 Ry
     correction to one-el term =     187.41650069 Ry

     iteration # 10     ecut=    50.00 Ry     beta= 0.70
     Davidson diagonalization with overlap
     ethr =  8.09E-06,  avg # of iterations =  3.0

     negative rho (up, down):  2.625E-07 0.000E+00

     add environment contribution to local potential
     Polarization accuracy = 3.2E-12, # of iterations =  50

     total cpu time spent up to now is    11522.0 secs

     total energy              =   -3432.55346152 Ry
     estimated scf accuracy    <       0.02461620 Ry
     electrostatic embedding   =      -0.07174559 Ry
     cavitation energy         =       0.02148686 Ry
     PV energy                 =      -0.07901700 Ry
     correction to one-el term =     186.71270231 Ry

     iteration # 11     ecut=    50.00 Ry     beta= 0.70
     Davidson diagonalization with overlap
     ethr =  6.76E-06,  avg # of iterations =  1.0

     negative rho (up, down):  1.090E-04 0.000E+00

     add environment contribution to local potential
     Polarization accuracy = 6.9E-12, # of iterations =  49

     total cpu time spent up to now is    12173.3 secs

     total energy              =   -3432.55406326 Ry
     estimated scf accuracy    <       0.01174422 Ry
     electrostatic embedding   =      -0.06974869 Ry
     cavitation energy         =       0.02130974 Ry
     PV energy                 =      -0.07918760 Ry
     correction to one-el term =     187.78358939 Ry

     iteration # 12     ecut=    50.00 Ry     beta= 0.70
     Davidson diagonalization with overlap
     ethr =  3.23E-06,  avg # of iterations =  2.5

     negative rho (up, down):  2.318E-06 0.000E+00

     add environment contribution to local potential
     Polarization accuracy = 5.8E-12, # of iterations =  46

     total cpu time spent up to now is    12769.8 secs

     total energy              =   -3432.55433130 Ry
     estimated scf accuracy    <       0.00655886 Ry
     electrostatic embedding   =      -0.07107293 Ry
     cavitation energy         =       0.02119721 Ry
     PV energy                 =      -0.07923768 Ry
     correction to one-el term =     188.50984675 Ry

     iteration # 13     ecut=    50.00 Ry     beta= 0.70
     Davidson diagonalization with overlap
     ethr =  1.80E-06,  avg # of iterations =  6.0

     negative rho (up, down):  4.136E-05 0.000E+00

     add environment contribution to local potential
     Polarization accuracy = 7.0E-12, # of iterations =  46

     total cpu time spent up to now is    13422.5 secs

     total energy              =   -3432.55502241 Ry
     estimated scf accuracy    <       0.00362668 Ry
     electrostatic embedding   =      -0.06771574 Ry
     cavitation energy         =       0.02104046 Ry
     PV energy                 =      -0.07941310 Ry
     correction to one-el term =     189.88552007 Ry

     iteration # 14     ecut=    50.00 Ry     beta= 0.70
     Davidson diagonalization with overlap
     ethr =  9.96E-07,  avg # of iterations =  6.0

     negative rho (up, down):  2.621E-04 0.000E+00

     add environment contribution to local potential
     Polarization accuracy = 3.7E-12, # of iterations =  45

     total cpu time spent up to now is    15969.5 secs

     total energy              =   -3432.55546969 Ry
     estimated scf accuracy    <       0.00123363 Ry
     electrostatic embedding   =      -0.06649385 Ry
     cavitation energy         =       0.02095675 Ry
     PV energy                 =      -0.07947795 Ry
     correction to one-el term =     190.85755466 Ry

     iteration # 15     ecut=    50.00 Ry     beta= 0.70
     Davidson diagonalization with overlap
     ethr =  3.39E-07,  avg # of iterations =  8.0

     negative rho (up, down):  1.586E-03 0.000E+00

     add environment contribution to local potential
     Polarization accuracy = 3.9E-12, # of iterations =  45

     total cpu time spent up to now is    16246.4 secs

     total energy              =   -3432.55602506 Ry
     estimated scf accuracy    <       0.00033133 Ry
     electrostatic embedding   =      -0.06189391 Ry
     cavitation energy         =       0.02086391 Ry
     PV energy                 =      -0.07959637 Ry
     correction to one-el term =     192.32151903 Ry

     iteration # 16     ecut=    50.00 Ry     beta= 0.70
     Davidson diagonalization with overlap
     ethr =  9.10E-08,  avg # of iterations =  7.5

     negative rho (up, down):  2.474E-04 0.000E+00

     add environment contribution to local potential
     Polarization accuracy = 4.9E-12, # of iterations =  45

     total cpu time spent up to now is    16541.6 secs

     total energy              =   -3432.55620852 Ry
     estimated scf accuracy    <       0.00018727 Ry
     electrostatic embedding   =      -0.05919595 Ry
     cavitation energy         =       0.02088373 Ry
     PV energy                 =      -0.07958908 Ry
     correction to one-el term =     192.81432897 Ry

     iteration # 17     ecut=    50.00 Ry     beta= 0.70
     Davidson diagonalization with overlap
     c_bands:  1 eigenvalues not converged
     ethr =  5.14E-08,  avg # of iterations = 13.5

     negative rho (up, down):  2.233E-05 0.000E+00

     add environment contribution to local potential
     Polarization accuracy = 7.8E-12, # of iterations =  45

     total cpu time spent up to now is    16797.9 secs

     total energy              =   -3432.55629896 Ry
     estimated scf accuracy    <       0.00002819 Ry
     electrostatic embedding   =      -0.05804872 Ry
     cavitation energy         =       0.02092116 Ry
     PV energy                 =      -0.07956312 Ry
     correction to one-el term =     192.80500093 Ry

     iteration # 18     ecut=    50.00 Ry     beta= 0.70
     Davidson diagonalization with overlap
     ethr =  7.74E-09,  avg # of iterations = 10.0

     negative rho (up, down):  4.929E-04 0.000E+00

     add environment contribution to local potential
     Polarization accuracy = 5.9E-12, # of iterations =  46

     total cpu time spent up to now is    17086.9 secs

     total energy              =   -3432.55632987 Ry
     estimated scf accuracy    <       0.00001957 Ry
     electrostatic embedding   =      -0.05765663 Ry
     cavitation energy         =       0.02093574 Ry
     PV energy                 =      -0.07954987 Ry
     correction to one-el term =     192.80843698 Ry

     iteration # 19     ecut=    50.00 Ry     beta= 0.70
     Davidson diagonalization with overlap
     c_bands:  1 eigenvalues not converged
     ethr =  5.38E-09,  avg # of iterations = 12.0

     negative rho (up, down):  3.209E-04 0.000E+00

     add environment contribution to local potential
     Polarization accuracy = 8.4E-12, # of iterations =  45

     total cpu time spent up to now is    17308.6 secs

     total energy              =   -3432.55636058 Ry
     estimated scf accuracy    <       0.00000773 Ry
     electrostatic embedding   =      -0.05664087 Ry
     cavitation energy         =       0.02094276 Ry
     PV energy                 =      -0.07954092 Ry
     correction to one-el term =     193.00036185 Ry

     iteration # 20     ecut=    50.00 Ry     beta= 0.70
     Davidson diagonalization with overlap
     ethr =  2.12E-09,  avg # of iterations =  5.5

     negative rho (up, down):  3.908E-04 0.000E+00

     add environment contribution to local potential
     Polarization accuracy = 7.0E-12, # of iterations =  45

     total cpu time spent up to now is    17616.1 secs

     total energy              =   -3432.55637208 Ry
     estimated scf accuracy    <       0.00000502 Ry
     electrostatic embedding   =      -0.05615881 Ry
     cavitation energy         =       0.02095003 Ry
     PV energy                 =      -0.07953555 Ry
     correction to one-el term =     193.02758821 Ry

     iteration # 21     ecut=    50.00 Ry     beta= 0.70
     Davidson diagonalization with overlap
     ethr =  1.38E-09,  avg # of iterations =  3.0

     negative rho (up, down):  3.555E-04 0.000E+00

     add environment contribution to local potential
     Polarization accuracy = 7.1E-12, # of iterations =  45

     total cpu time spent up to now is    17887.3 secs

     total energy              =   -3432.55637845 Ry
     estimated scf accuracy    <       0.00000142 Ry
     electrostatic embedding   =      -0.05594653 Ry
     cavitation energy         =       0.02094960 Ry
     PV energy                 =      -0.07953343 Ry
     correction to one-el term =     193.05934530 Ry

     iteration # 22     ecut=    50.00 Ry     beta= 0.70
     Davidson diagonalization with overlap
     ethr =  3.90E-10,  avg # of iterations =  3.0

     negative rho (up, down):  2.932E-04 0.000E+00

     add environment contribution to local potential
     Polarization accuracy = 7.9E-12, # of iterations =  45

     total cpu time spent up to now is    18146.9 secs

     total energy              =   -3432.55638218 Ry
     estimated scf accuracy    <       0.00000092 Ry
     electrostatic embedding   =      -0.05580453 Ry
     cavitation energy         =       0.02094911 Ry
     PV energy                 =      -0.07953332 Ry
     correction to one-el term =     193.06567461 Ry

     iteration # 23     ecut=    50.00 Ry     beta= 0.70
     Davidson diagonalization with overlap
     ethr =  2.52E-10,  avg # of iterations =  3.0

     negative rho (up, down):  1.846E-04 0.000E+00

     add environment contribution to local potential
     Polarization accuracy = 8.1E-12, # of iterations =  45

     total cpu time spent up to now is    18380.0 secs

     total energy              =   -3432.55638459 Ry
     estimated scf accuracy    <       0.00000044 Ry
     electrostatic embedding   =      -0.05569563 Ry
     cavitation energy         =       0.02094899 Ry
     PV energy                 =      -0.07953384 Ry
     correction to one-el term =     193.06472211 Ry

     iteration # 24     ecut=    50.00 Ry     beta= 0.70
     Davidson diagonalization with overlap
     ethr =  1.21E-10,  avg # of iterations =  2.0

     negative rho (up, down):  1.560E-04 0.000E+00

     add environment contribution to local potential
     Polarization accuracy = 6.4E-12, # of iterations =  45

     total cpu time spent up to now is    18642.5 secs

     total energy              =   -3432.55638569 Ry
     estimated scf accuracy    <       0.00000021 Ry
     electrostatic embedding   =      -0.05564854 Ry
     cavitation energy         =       0.02094959 Ry
     PV energy                 =      -0.07953433 Ry
     correction to one-el term =     193.05515211 Ry

     iteration # 25     ecut=    50.00 Ry     beta= 0.70
     Davidson diagonalization with overlap
     ethr =  5.76E-11,  avg # of iterations =  2.0

     negative rho (up, down):  1.440E-04 0.000E+00

     add environment contribution to local potential
     Polarization accuracy = 5.9E-12, # of iterations =  46

     total cpu time spent up to now is    18925.4 secs

     total energy              =   -3432.55638606 Ry
     estimated scf accuracy    <       0.00000011 Ry
     electrostatic embedding   =      -0.05563419 Ry
     cavitation energy         =       0.02095007 Ry
     PV energy                 =      -0.07953466 Ry
     correction to one-el term =     193.05347304 Ry

     iteration # 26     ecut=    50.00 Ry     beta= 0.70
     Davidson diagonalization with overlap
     ethr =  3.06E-11,  avg # of iterations =  1.0

     negative rho (up, down):  1.446E-04 0.000E+00

     add environment contribution to local potential
     Polarization accuracy = 6.7E-12, # of iterations =  45

     total cpu time spent up to now is    19163.7 secs

     total energy              =   -3432.55638626 Ry
     estimated scf accuracy    <       0.00000010 Ry
     electrostatic embedding   =      -0.05563603 Ry
     cavitation energy         =       0.02095009 Ry
     PV energy                 =      -0.07953512 Ry
     correction to one-el term =     193.05233767 Ry

     iteration # 27     ecut=    50.00 Ry     beta= 0.70
     Davidson diagonalization with overlap
     ethr =  2.77E-11,  avg # of iterations =  1.0

     negative rho (up, down):  1.414E-04 0.000E+00

     add environment contribution to local potential
     Polarization accuracy = 6.2E-12, # of iterations =  45

     total cpu time spent up to now is    19464.3 secs

     total energy              =   -3432.55638641 Ry
     estimated scf accuracy    <       0.00000007 Ry
     electrostatic embedding   =      -0.05563479 Ry
     cavitation energy         =       0.02095011 Ry
     PV energy                 =      -0.07953524 Ry
     correction to one-el term =     193.05309553 Ry

     iteration # 28     ecut=    50.00 Ry     beta= 0.70
     Davidson diagonalization with overlap
     ethr =  2.02E-11,  avg # of iterations =  2.0

     negative rho (up, down):  1.470E-04 0.000E+00

     add environment contribution to local potential
     Polarization accuracy = 5.7E-12, # of iterations =  46

     total cpu time spent up to now is    19754.6 secs

     total energy              =   -3432.55638680 Ry
     estimated scf accuracy    <       0.00000007 Ry
     electrostatic embedding   =      -0.05562693 Ry
     cavitation energy         =       0.02095014 Ry
     PV energy                 =      -0.07953546 Ry
     correction to one-el term =     193.05403293 Ry

     iteration # 29     ecut=    50.00 Ry     beta= 0.70
     Davidson diagonalization with overlap
     ethr =  1.79E-11,  avg # of iterations =  1.0

     negative rho (up, down):  1.603E-04 0.000E+00

     add environment contribution to local potential
     Polarization accuracy = 6.0E-12, # of iterations =  46

     total cpu time spent up to now is    20035.8 secs

     total energy              =   -3432.55638745 Ry
     estimated scf accuracy    <       0.00000006 Ry
     electrostatic embedding   =      -0.05562731 Ry
     cavitation energy         =       0.02095004 Ry
     PV energy                 =      -0.07953572 Ry
     correction to one-el term =     193.05591439 Ry

     iteration # 30     ecut=    50.00 Ry     beta= 0.70
     Davidson diagonalization with overlap
     ethr =  1.69E-11,  avg # of iterations =  1.0

     negative rho (up, down):  1.709E-04 0.000E+00

     add environment contribution to local potential
     Polarization accuracy = 5.5E-12, # of iterations =  45

     total cpu time spent up to now is    20332.8 secs

     total energy              =   -3432.55638851 Ry
     estimated scf accuracy    <       0.00000005 Ry
     electrostatic embedding   =      -0.05562637 Ry
     cavitation energy         =       0.02094982 Ry
     PV energy                 =      -0.07953583 Ry
     correction to one-el term =     193.05830827 Ry

     iteration # 31     ecut=    50.00 Ry     beta= 0.70
     Davidson diagonalization with overlap
     ethr =  1.49E-11,  avg # of iterations =  2.0

     negative rho (up, down):  1.789E-04 0.000E+00

     add environment contribution to local potential
     Polarization accuracy = 5.4E-12, # of iterations =  45

     total cpu time spent up to now is    20615.1 secs

     total energy              =   -3432.55639180 Ry
     estimated scf accuracy    <       0.00000005 Ry
     electrostatic embedding   =      -0.05561967 Ry
     cavitation energy         =       0.02094959 Ry
     PV energy                 =      -0.07953605 Ry
     correction to one-el term =     193.06061883 Ry

     iteration # 32     ecut=    50.00 Ry     beta= 0.70
     Davidson diagonalization with overlap
     ethr =  1.35E-11,  avg # of iterations =  2.0

     negative rho (up, down):  1.764E-04 0.000E+00

     add environment contribution to local potential
     Polarization accuracy = 7.0E-12, # of iterations =  46

     total cpu time spent up to now is    20962.2 secs

     total energy              =   -3432.55639480 Ry
     estimated scf accuracy    <       0.00000004 Ry
     electrostatic embedding   =      -0.05562258 Ry
     cavitation energy         =       0.02094949 Ry
     PV energy                 =      -0.07953596 Ry
     correction to one-el term =     193.06107611 Ry

     iteration # 33     ecut=    50.00 Ry     beta= 0.70
     Davidson diagonalization with overlap
     ethr =  1.11E-11,  avg # of iterations =  2.0

     negative rho (up, down):  1.685E-04 0.000E+00

     add environment contribution to local potential
     Polarization accuracy = 5.0E-12, # of iterations =  45

     total cpu time spent up to now is    21181.2 secs

     total energy              =   -3432.55639914 Ry
     estimated scf accuracy    <       0.00000003 Ry
     electrostatic embedding   =      -0.05562509 Ry
     cavitation energy         =       0.02094952 Ry
     PV energy                 =      -0.07953583 Ry
     correction to one-el term =     193.05983974 Ry

     iteration # 34     ecut=    50.00 Ry     beta= 0.70
     Davidson diagonalization with overlap
     ethr =  9.42E-12,  avg # of iterations =  2.0

     negative rho (up, down):  1.587E-04 0.000E+00

     add environment contribution to local potential
     Polarization accuracy = 3.7E-12, # of iterations =  45

     total cpu time spent up to now is    21464.9 secs

     total energy              =   -3432.55640069 Ry
     estimated scf accuracy    <       0.00000003 Ry
     electrostatic embedding   =      -0.05562609 Ry
     cavitation energy         =       0.02094963 Ry
     PV energy                 =      -0.07953582 Ry
     correction to one-el term =     193.05895502 Ry

     iteration # 35     ecut=    50.00 Ry     beta= 0.70
     Davidson diagonalization with overlap
     ethr =  7.87E-12,  avg # of iterations =  4.0

     negative rho (up, down):  1.493E-04 0.000E+00

     add environment contribution to local potential
     Polarization accuracy = 4.1E-12, # of iterations =  45

     total cpu time spent up to now is    21702.4 secs

     total energy              =   -3432.55640884 Ry
     estimated scf accuracy    <       0.00000001 Ry
     electrostatic embedding   =      -0.05563562 Ry
     cavitation energy         =       0.02094980 Ry
     PV energy                 =      -0.07953540 Ry
     correction to one-el term =     193.05548682 Ry

     iteration # 36     ecut=    50.00 Ry     beta= 0.70
     Davidson diagonalization with overlap
     ethr =  3.94E-12,  avg # of iterations =  3.5

     negative rho (up, down):  1.475E-04 0.000E+00

     add environment contribution to local potential
     Polarization accuracy = 4.7E-12, # of iterations =  45

     total cpu time spent up to now is    21996.5 secs

     total energy              =   -3432.55641283 Ry
     estimated scf accuracy    <          5.1E-09 Ry
     electrostatic embedding   =      -0.05563988 Ry
     cavitation energy         =       0.02094994 Ry
     PV energy                 =      -0.07953538 Ry
     correction to one-el term =     193.05402170 Ry

     iteration # 37     ecut=    50.00 Ry     beta= 0.70
     Davidson diagonalization with overlap
     ethr =  1.41E-12,  avg # of iterations =  2.0

     negative rho (up, down):  1.433E-04 0.000E+00

     add environment contribution to local potential
     Polarization accuracy = 4.9E-12, # of iterations =  46

     total cpu time spent up to now is    22289.3 secs

     total energy              =   -3432.55641305 Ry
     estimated scf accuracy    <          2.5E-09 Ry
     electrostatic embedding   =      -0.05564176 Ry
     cavitation energy         =       0.02094997 Ry
     PV energy                 =      -0.07953539 Ry
     correction to one-el term =     193.05377899 Ry

     iteration # 38     ecut=    50.00 Ry     beta= 0.70
     Davidson diagonalization with overlap
     ethr =  6.77E-13,  avg # of iterations =  5.0

     negative rho (up, down):  1.467E-04 0.000E+00

     add environment contribution to local potential
     Polarization accuracy = 4.7E-12, # of iterations =  46

     total cpu time spent up to now is    22579.8 secs

     total energy              =   -3432.55641382 Ry
     estimated scf accuracy    <          1.1E-09 Ry
     electrostatic embedding   =      -0.05564288 Ry
     cavitation energy         =       0.02095003 Ry
     PV energy                 =      -0.07953539 Ry
     correction to one-el term =     193.05304714 Ry

     iteration # 39     ecut=    50.00 Ry     beta= 0.70
     Davidson diagonalization with overlap
     ethr =  3.01E-13,  avg # of iterations =  3.5

     negative rho (up, down):  1.512E-04 0.000E+00

     the potential shift due to the Gaussian-smeared nuclei is    -1.3353 ev

     total cpu time spent up to now is    22823.9 secs

     End of self-consistent calculation

          k = 0.2500 0.2752 0.0000 ( 34780 PWs)   bands (ev):

   -78.5127 -78.4996 -78.1019 -78.0894 -78.0087 -77.9961 -77.7473 -77.7345
   -77.6602 -77.6149 -77.5941 -77.4543 -49.0394 -49.0263 -48.4958 -48.4832
   -48.4054 -48.3923 -48.3289 -48.3162 -48.1401 -48.1329 -48.1198 -48.0343
   -48.0212 -48.0166 -48.0087 -48.0038 -47.9374 -47.9249 -47.9199 -47.9074
   -47.8406 -47.8275 -47.8162 -47.6981 -47.6853 -47.6745 -47.5831 -47.5440
   -47.5372 -47.5245 -47.4896 -47.4376 -47.4240 -47.4197 -47.4080 -47.2704
   -24.3130 -24.2029 -24.0440 -23.8342 -23.8081 -23.7494 -23.7130 -23.6572
   -23.3007 -23.2102 -23.0808 -23.0695 -23.0612 -22.9875 -22.9823 -22.8999
   -22.8935 -22.8379 -22.8282 -22.7600 -22.7395 -22.6935 -22.5047 -22.4093
   -22.1106 -22.0990 -22.0407 -21.9825 -12.4998 -12.4808 -12.3534 -12.2558
   -12.0733 -11.9518 -11.8920 -11.7708 -11.6909 -11.5402 -11.5173 -11.4151
   -11.3838 -11.3751 -11.3338 -11.1865 -11.1461 -11.0867 -11.0628 -10.9629
   -10.8837 -10.8474 -10.7994 -10.6125 -10.5028 -10.4414 -10.2341 -10.1759
   -10.0552  -9.9946  -9.9319  -9.9206  -9.7929  -9.6538  -9.6142  -9.5591
    -9.5273  -9.4143  -9.4049  -9.3209  -9.2580  -9.2219  -9.1446  -8.9574
    -8.9500  -8.8575  -8.7253  -8.6636  -8.5540  -8.4838  -8.4699  -8.4242
    -8.4198  -8.3067  -8.3038  -8.1911  -8.1695  -8.1201  -8.0378  -8.0107
    -7.9057  -7.8324  -7.7793  -7.6727  -7.6485  -7.5463  -7.4075  -7.3864
    -7.2479  -7.1936  -7.1328  -7.0895  -6.9608  -6.9352  -6.9058  -6.7560
    -6.7461  -6.7194  -6.6255  -6.5653  -6.4661  -6.3597  -6.3280  -6.2602
    -5.4106  -5.3552  -5.3173  -5.2316  -5.1237  -5.0656  -5.0365  -4.9850
    -4.9707  -4.9472  -4.9141  -4.8880  -4.7980  -4.7403  -4.7123  -4.6269
    -4.5714  -4.5045  -4.4881  -4.3676  -4.3552  -4.2071  -4.1372  -4.1144
    -3.9474  -3.9161  -3.8580  -3.7370  -3.5110  -3.4397  -3.3670  -3.3004
    -3.2318  -3.2106  -2.9987  -2.8550  -2.5119  -2.2522  -2.2283  -2.1520
    -1.9644  -1.8531  -1.2148  -0.9664  -0.9139  -0.6587  -0.4744  -0.4493
    -0.4155  -0.3343  -0.2146  -0.1285   0.0886   0.2953   0.3538   0.6949
     0.7766   0.8409

          k =-0.2500 0.2752 0.0000 ( 34780 PWs)   bands (ev):

   -78.5127 -78.4996 -78.1019 -78.0894 -78.0087 -77.9961 -77.7473 -77.7345
   -77.6602 -77.6149 -77.5941 -77.4543 -49.0394 -49.0263 -48.4958 -48.4832
   -48.4054 -48.3923 -48.3289 -48.3162 -48.1401 -48.1328 -48.1197 -48.0343
   -48.0213 -48.0166 -48.0087 -48.0039 -47.9374 -47.9249 -47.9199 -47.9074
   -47.8406 -47.8275 -47.8162 -47.6981 -47.6853 -47.6745 -47.5831 -47.5440
   -47.5372 -47.5245 -47.4896 -47.4376 -47.4239 -47.4197 -47.4080 -47.2704
   -24.3129 -24.2030 -24.0439 -23.8329 -23.8070 -23.7511 -23.7141 -23.6575
   -23.3004 -23.2091 -23.0811 -23.0708 -23.0602 -22.9891 -22.9843 -22.8994
   -22.8912 -22.8369 -22.8276 -22.7604 -22.7392 -22.6947 -22.5047 -22.4092
   -22.1117 -22.0979 -22.0411 -21.9821 -12.5036 -12.4834 -12.3531 -12.2508
   -12.0735 -11.9491 -11.8828 -11.7750 -11.6898 -11.5509 -11.5197 -11.4196
   -11.3856 -11.3727 -11.3269 -11.1863 -11.1572 -11.0751 -11.0391 -10.9842
   -10.8778 -10.8317 -10.8114 -10.6252 -10.4968 -10.4449 -10.2254 -10.1855
   -10.0432 -10.0076  -9.9332  -9.9315  -9.7940  -9.6258  -9.6211  -9.5613
    -9.5423  -9.4252  -9.3981  -9.3088  -9.2632  -9.2173  -9.1442  -8.9537
    -8.9451  -8.8608  -8.7233  -8.6606  -8.5483  -8.4898  -8.4705  -8.4299
    -8.4127  -8.3258  -8.3008  -8.1791  -8.1546  -8.1314  -8.0509  -8.0003
    -7.8992  -7.8414  -7.7807  -7.6835  -7.6465  -7.5484  -7.3901  -7.3665
    -7.2294  -7.2231  -7.1163  -7.0714  -7.0260  -6.9591  -6.8983  -6.7703
    -6.7251  -6.7032  -6.6393  -6.5386  -6.4698  -6.3571  -6.3305  -6.2596
    -5.4172  -5.3567  -5.3121  -5.2237  -5.1291  -5.0619  -5.0355  -4.9888
    -4.9706  -4.9460  -4.9108  -4.8883  -4.8004  -4.7406  -4.7107  -4.6275
    -4.5805  -4.5128  -4.4801  -4.3696  -4.3491  -4.2114  -4.1347  -4.1182
    -3.9457  -3.9104  -3.8611  -3.7365  -3.5093  -3.4395  -3.3699  -3.2999
    -3.2309  -3.2104  -2.9987  -2.8543  -2.5121  -2.2527  -2.2284  -2.1516
    -1.9647  -1.8529  -1.2144  -0.9663  -0.9134  -0.6590  -0.4736  -0.4496
    -0.4158  -0.3353  -0.2157  -0.1288   0.0915   0.2948   0.3520   0.6957
     0.7759   0.8415

     the Fermi energy is    -4.2090 ev

!    total energy              =   -3432.55641414 Ry
     estimated scf accuracy    <          4.4E-10 Ry
     smearing contrib. (-TS)   =       0.03985989 Ry
     internal energy E=F+TS    =   -3432.59627404 Ry

     The total energy is F=E-TS. E is the sum of the following terms:
     one-electron contribution =  -25654.23763639 Ry
     hartree contribution      =   12806.36008895 Ry
     xc contribution           =    -446.47137290 Ry
     ewald contribution        =    9935.37101340 Ry
     one-center paw contrib.   =    -266.55796300 Ry
     electrostatic embedding   =      -0.05564137 Ry
     cavitation energy         =       0.02094997 Ry
     PV energy                 =      -0.07953546 Ry
     correction to one-el term =     193.05382276 Ry

     WARNING: you are using the parabolic pbc correction;
              the potential shift above must be added to 
              band and Fermi energies.

     convergence has been achieved in  39 iterations

     negative rho (up, down):  1.512E-04 0.000E+00

     Forces acting on atoms (cartesian axes, Ry/au):

     atom    1 type  1   force =     0.03437024    0.00064758   -0.01956249
     atom    2 type  1   force =    -0.00170494   -0.00041435   -0.01456798
     atom    3 type  1   force =     0.00130125    0.00022172   -0.01810917
     atom    4 type  1   force =    -0.00007338   -0.01520510    0.03956129
     atom    5 type  2   force =    -0.02605702   -0.00196332   -0.00399448
     atom    6 type  2   force =     0.02463612   -0.00321068    0.00152165
     atom    7 type  1   force =     0.00289766    0.07054950    0.00343735
     atom    8 type  1   force =    -0.00103083    0.05349088    0.00160513
     atom    9 type  2   force =    -0.00096291   -0.00183405    0.00450011
     atom   10 type  2   force =     0.00072553   -0.00046070    0.01509046
     atom   11 type  1   force =     0.00216724   -0.06639521    0.00328818
     atom   12 type  1   force =    -0.00032634   -0.04828465    0.00173884
     atom   13 type  1   force =    -0.00164254    0.00045978    0.00176121
     atom   14 type  1   force =     0.00143855    0.00043594   -0.00799103
     atom   15 type  1   force =    -0.00209687   -0.00024538   -0.00410988
     atom   16 type  1   force =     0.00136714   -0.00009497    0.01396640
     atom   17 type  2   force =     0.02048119   -0.00165236    0.00000000
     atom   18 type  2   force =    -0.02068391    0.00054736    0.00000000
     atom   19 type  1   force =    -0.00764689   -0.04185667    0.00000000
     atom   20 type  1   force =     0.00611070   -0.09919296    0.00000000
     atom   21 type  2   force =    -0.01508731    0.00224819    0.00000000
     atom   22 type  2   force =     0.01951289    0.00097405    0.00000000
     atom   23 type  1   force =    -0.00875658    0.03999546    0.00000000
     atom   24 type  1   force =     0.00746785    0.09843974    0.00000000
     atom   25 type  1   force =    -0.00209687   -0.00024538    0.00410988
     atom   26 type  1   force =     0.00136714   -0.00009497   -0.01396640
     atom   27 type  1   force =    -0.00164254    0.00045978   -0.00176121
     atom   28 type  1   force =     0.00143855    0.00043594    0.00799103
     atom   29 type  2   force =    -0.02605702   -0.00196332    0.00399448
     atom   30 type  2   force =     0.02463612   -0.00321068   -0.00152165
     atom   31 type  1   force =     0.00289766    0.07054950   -0.00343735
     atom   32 type  1   force =    -0.00103083    0.05349088   -0.00160513
     atom   33 type  2   force =    -0.00096291   -0.00183405   -0.00450011
     atom   34 type  2   force =     0.00072553   -0.00046070   -0.01509046
     atom   35 type  1   force =     0.00216724   -0.06639521   -0.00328818
     atom   36 type  1   force =    -0.00032634   -0.04828465   -0.00173884
     atom   37 type  1   force =     0.00130125    0.00022172    0.01810917
     atom   38 type  1   force =    -0.00007338   -0.01520510   -0.03956129
     atom   39 type  1   force =     0.03437024    0.00064758    0.01956249
     atom   40 type  1   force =    -0.00170494   -0.00041435    0.01456798
     atom   41 type  3   force =    -0.03555715   -0.00068728    0.01156922
     atom   42 type  3   force =    -0.03555715   -0.00068728   -0.01156922
     atom   43 type  3   force =    -0.00015073    0.01323888   -0.02974657
     atom   44 type  3   force =    -0.00015073    0.01323888    0.02974657
     The non-local contrib.  to forces
     atom    1 type  1   force =     1.75613129    0.02679935    0.45550691
     atom    2 type  1   force =     0.05349598   -0.02095563    1.24811639
     atom    3 type  1   force =     0.01239854    0.02201407    1.08356937
     atom    4 type  1   force =    -0.01517016    0.89336661   -0.73336927
     atom    5 type  2   force =    -0.02993074    0.00137121   -0.00455591
     atom    6 type  2   force =     0.03026827    0.00160929   -0.00873820
     atom    7 type  1   force =    -0.01630339   -0.07360668   -0.07571783
     atom    8 type  1   force =    -0.10440713   -0.04362709   -0.01364448
     atom    9 type  2   force =     0.00998898   -0.00064083    0.02779281
     atom   10 type  2   force =    -0.01285974   -0.00083142   -0.06285466
     atom   11 type  1   force =    -0.01587754    0.06066253   -0.07740625
     atom   12 type  1   force =    -0.10426523    0.02649086   -0.02094128
     atom   13 type  1   force =    -0.00671857    0.02347199   -0.02531333
     atom   14 type  1   force =     0.02980213   -0.00308451    0.09258794
     atom   15 type  1   force =    -0.01091763    0.00086456   -0.04606969
     atom   16 type  1   force =    -0.00534437   -0.00239472    0.19940501
     atom   17 type  2   force =    -0.00916708   -0.00037449    0.00000000
     atom   18 type  2   force =     0.00519693    0.00080746    0.00000000
     atom   19 type  1   force =     0.03074356    0.10389148    0.00000000
     atom   20 type  1   force =    -0.01879785    0.01672586    0.00000000
     atom   21 type  2   force =     0.01142385    0.00021764    0.00000000
     atom   22 type  2   force =    -0.01628145    0.00003578    0.00000000
     atom   23 type  1   force =     0.04070245   -0.09851647    0.00000000
     atom   24 type  1   force =    -0.02832715   -0.01421941    0.00000000
     atom   25 type  1   force =    -0.01091763    0.00086456    0.04606969
     atom   26 type  1   force =    -0.00534437   -0.00239472   -0.19940501
     atom   27 type  1   force =    -0.00671857    0.02347199    0.02531333
     atom   28 type  1   force =     0.02980213   -0.00308451   -0.09258794
     atom   29 type  2   force =    -0.02993074    0.00137121    0.00455591
     atom   30 type  2   force =     0.03026827    0.00160929    0.00873820
     atom   31 type  1   force =    -0.01630339   -0.07360668    0.07571783
     atom   32 type  1   force =    -0.10440713   -0.04362709    0.01364448
     atom   33 type  2   force =     0.00998898   -0.00064083   -0.02779281
     atom   34 type  2   force =    -0.01285974   -0.00083142    0.06285466
     atom   35 type  1   force =    -0.01587754    0.06066253    0.07740625
     atom   36 type  1   force =    -0.10426523    0.02649086    0.02094128
     atom   37 type  1   force =     0.01239854    0.02201407   -1.08356937
     atom   38 type  1   force =    -0.01517016    0.89336661    0.73336927
     atom   39 type  1   force =     1.75613129    0.02679935   -0.45550691
     atom   40 type  1   force =     0.05349598   -0.02095563   -1.24811639
     atom   41 type  3   force =    -0.08954552   -0.00174722    0.03628022
     atom   42 type  3   force =    -0.08954552   -0.00174722   -0.03628022
     atom   43 type  3   force =     0.00073096   -0.04796166    0.10846569
     atom   44 type  3   force =     0.00073096   -0.04796166   -0.10846569
     The ionic contribution  to forces
     atom    1 type  1   force =    -3.29355202   -0.04510738  -97.28399080
     atom    2 type  1   force =    -0.12992068    0.11368516 -101.61562124
     atom    3 type  1   force =    -0.19741632   -0.03763499  -94.88544636
     atom    4 type  1   force =     0.20926612   -1.45457846  -91.25682514
     atom    5 type  2   force =     3.10958786    0.04596809 -173.22433189
     atom    6 type  2   force =    -3.00639851    0.00525709 -174.69469119
     atom    7 type  1   force =     0.94240477    0.99549224  -62.62739083
     atom    8 type  1   force =    -0.19768932    0.52493884  -64.65815356
     atom    9 type  2   force =    -1.05931235   -0.09278144 -169.58043023
     atom   10 type  2   force =     0.68762326    0.03477805 -175.03479413
     atom   11 type  1   force =     0.94803084   -0.92673910  -62.44928960
     atom   12 type  1   force =    -0.20134219   -0.41635264  -64.35931732
     atom   13 type  1   force =    -0.04046227   -0.02606000  -37.77764594
     atom   14 type  1   force =    -0.14503749    0.02580220  -39.32945326
     atom   15 type  1   force =    -0.13103892   -0.01078907  -24.91224338
     atom   16 type  1   force =     0.18583331   -0.03502474  -27.61858508
     atom   17 type  2   force =     0.36977057   -0.05176182   -0.00044913
     atom   18 type  2   force =    -0.34275234    0.03287153   -0.00044866
     atom   19 type  1   force =    -0.17052875   -0.61254732   -0.00008086
     atom   20 type  1   force =     0.06494111   -1.11829051   -0.00007828
     atom   21 type  2   force =     0.79913162    0.04187117   -0.00025601
     atom   22 type  2   force =    -1.10422285    0.00521445   -0.00024403
     atom   23 type  1   force =    -0.26968952    0.56144644   -0.00008086
     atom   24 type  1   force =     0.17451506    1.10908709   -0.00007828
     atom   25 type  1   force =    -0.13103840   -0.01078852   24.91201882
     atom   26 type  1   force =     0.18584239   -0.03502430   27.61843651
     atom   27 type  1   force =    -0.04045905   -0.02606153   37.77796445
     atom   28 type  1   force =    -0.14503900    0.02580183   39.32975663
     atom   29 type  2   force =     3.10953364    0.04596094  173.22457439
     atom   30 type  2   force =    -3.00634602    0.00524967  174.69493001
     atom   31 type  1   force =     0.94240230    0.99545976   62.62745252
     atom   32 type  1   force =    -0.19768562    0.52491100   64.65821861
     atom   33 type  2   force =    -1.05932540   -0.09277982  169.58054927
     atom   34 type  2   force =     0.68762829    0.03478404  175.03494329
     atom   35 type  1   force =     0.94802987   -0.92670481   62.44935234
     atom   36 type  1   force =    -0.20133993   -0.41632293   64.35938375
     atom   37 type  1   force =    -0.19741557   -0.03763305   94.88560150
     atom   38 type  1   force =     0.20926997   -1.45476644   91.25665766
     atom   39 type  1   force =    -3.29362275   -0.04510911   97.28409564
     atom   40 type  1   force =    -0.12991732    0.11368540  101.61568609
     atom   41 type  3   force =     2.53843810    0.06319127  -16.49282754
     atom   42 type  3   force =     2.53850974    0.06319248   16.49283780
     atom   43 type  3   force =     0.02039843    1.25200913  -18.31766302
     atom   44 type  3   force =     0.02039533    1.25220013   18.31795734
     The local contribution  to forces
     atom    1 type  1   force =     1.49976022    0.02956828   96.76934076
     atom    2 type  1   force =     0.13324352   -0.04361519  100.33813539
     atom    3 type  1   force =     0.16849247    0.00697149   93.74457366
     atom    4 type  1   force =    -0.17816274    0.50326078   92.12532967
     atom    5 type  2   force =    -3.15792358   -0.06777163  173.26005041
     atom    6 type  2   force =     3.05436351   -0.03004904  174.70754910
     atom    7 type  1   force =    -0.93840842   -0.84343015   62.71844966
     atom    8 type  1   force =     0.31661575   -0.41482603   64.66458827
     atom    9 type  2   force =     1.01563171    0.10166445  169.51139476
     atom   10 type  2   force =    -0.63872758   -0.00727819  175.11188324
     atom   11 type  1   force =    -0.94078769    0.79645863   62.53076281
     atom   12 type  1   force =     0.31589531    0.33417613   64.36066966
     atom   13 type  1   force =     0.04283044    0.00191131   37.79978956
     atom   14 type  1   force =     0.11969397   -0.02475312   39.23648559
     atom   15 type  1   force =     0.13790119    0.01042378   24.95054480
     atom   16 type  1   force =    -0.17729192    0.03849289   27.43612433
     atom   17 type  2   force =    -0.34238883    0.04936457   -0.00581861
     atom   18 type  2   force =     0.31928686   -0.03459138   -0.00585932
     atom   19 type  1   force =     0.13082905    0.46712563   -0.00246111
     atom   20 type  1   force =    -0.03858844    1.00136091   -0.00248502
     atom   21 type  2   force =    -0.82921543   -0.03856351   -0.00605982
     atom   22 type  2   force =     1.14378786   -0.00297433   -0.00610990
     atom   23 type  1   force =     0.21911866   -0.42357204   -0.00245953
     atom   24 type  1   force =    -0.13746225   -0.99570650   -0.00248396
     atom   25 type  1   force =     0.13790520    0.01042529  -24.95231547
     atom   26 type  1   force =    -0.17727708    0.03849453  -27.43788223
     atom   27 type  1   force =     0.04283190    0.00191015  -37.80154154
     atom   28 type  1   force =     0.11970075   -0.02475188  -39.23825263
     atom   29 type  2   force =    -3.15792799   -0.06776932 -173.26620300
     atom   30 type  2   force =     3.05437150   -0.03004518 -174.71368521
     atom   31 type  1   force =    -0.93838911   -0.84342224  -62.72091558
     atom   32 type  1   force =     0.31659330   -0.41481832  -64.66706895
     atom   33 type  2   force =     1.01563987    0.10166486 -169.51723638
     atom   34 type  2   force =    -0.63877045   -0.00728010 -175.11759383
     atom   35 type  1   force =    -0.94076893    0.79645183  -62.53322848
     atom   36 type  1   force =     0.31587342    0.33416931  -64.36314947
     atom   37 type  1   force =     0.16849119    0.00696296  -93.74849079
     atom   38 type  1   force =    -0.17816533    0.50334032  -92.12903874
     atom   39 type  1   force =     1.49978969    0.02956904  -96.77087698
     atom   40 type  1   force =     0.13318365   -0.04361746 -100.33952827
     atom   41 type  3   force =    -2.50262785   -0.05944140   16.47854299
     atom   42 type  3   force =    -2.50262785   -0.05944140  -16.47854299
     atom   43 type  3   force =    -0.01755324   -1.20520565   18.23180951
     atom   44 type  3   force =    -0.01755324   -1.20520565  -18.23180951
     The core correction contribution to forces
     atom    1 type  1   force =    -0.01813700   -0.00026971   -0.00452483
     atom    2 type  1   force =    -0.00027327    0.00021033   -0.01031522
     atom    3 type  1   force =    -0.00015177   -0.00025453   -0.01102969
     atom    4 type  1   force =     0.00015348   -0.00894912    0.00634240
     atom    5 type  2   force =     0.00000000    0.00000000    0.00000000
     atom    6 type  2   force =     0.00000000    0.00000000    0.00000000
     atom    7 type  1   force =    -0.00008838   -0.00070685    0.00069256
     atom    8 type  1   force =     0.00126921   -0.00066892    0.00014086
     atom    9 type  2   force =     0.00000000    0.00000000    0.00000000
     atom   10 type  2   force =     0.00000000    0.00000000    0.00000000
     atom   11 type  1   force =    -0.00009431    0.00082153    0.00069048
     atom   12 type  1   force =     0.00126676    0.00081190    0.00019614
     atom   13 type  1   force =     0.00006378   -0.00029528    0.00044182
     atom   14 type  1   force =    -0.00028893    0.00004117   -0.00074379
     atom   15 type  1   force =     0.00018591   -0.00001013    0.00006970
     atom   16 type  1   force =     0.00003296    0.00004042   -0.00298221
     atom   17 type  2   force =     0.00000000    0.00000000    0.00000000
     atom   18 type  2   force =     0.00000000    0.00000000    0.00000000
     atom   19 type  1   force =    -0.00023547   -0.00004807   -0.00000213
     atom   20 type  1   force =     0.00012139    0.00141397   -0.00000225
     atom   21 type  2   force =     0.00000000    0.00000000    0.00000000
     atom   22 type  2   force =     0.00000000    0.00000000    0.00000000
     atom   23 type  1   force =    -0.00032755    0.00001095   -0.00000212
     atom   24 type  1   force =     0.00020176   -0.00143949   -0.00000223
     atom   25 type  1   force =     0.00018585   -0.00001014   -0.00007181
     atom   26 type  1   force =     0.00003305    0.00004043    0.00298011
     atom   27 type  1   force =     0.00006377   -0.00029531   -0.00044410
     atom   28 type  1   force =    -0.00028892    0.00004119    0.00074157
     atom   29 type  2   force =     0.00000000    0.00000000    0.00000000
     atom   30 type  2   force =     0.00000000    0.00000000    0.00000000
     atom   31 type  1   force =    -0.00008842   -0.00070694   -0.00069448
     atom   32 type  1   force =     0.00126922   -0.00066890   -0.00014276
     atom   33 type  2   force =     0.00000000    0.00000000    0.00000000
     atom   34 type  2   force =     0.00000000    0.00000000    0.00000000
     atom   35 type  1   force =    -0.00009435    0.00082166   -0.00069240
     atom   36 type  1   force =     0.00126677    0.00081190   -0.00019805
     atom   37 type  1   force =    -0.00015170   -0.00025468    0.01102536
     atom   38 type  1   force =     0.00015345   -0.00895044   -0.00634757
     atom   39 type  1   force =    -0.01813788   -0.00026973    0.00452267
     atom   40 type  1   force =    -0.00027361    0.00021030    0.01031349
     atom   41 type  3   force =     0.00000000    0.00000000    0.00000000
     atom   42 type  3   force =     0.00000000    0.00000000    0.00000000
     atom   43 type  3   force =     0.00000000    0.00000000    0.00000000
     atom   44 type  3   force =     0.00000000    0.00000000    0.00000000
     The Hubbard contrib.    to forces
     atom    1 type  1   force =     0.00000000    0.00000000    0.00000000
     atom    2 type  1   force =     0.00000000    0.00000000    0.00000000
     atom    3 type  1   force =     0.00000000    0.00000000    0.00000000
     atom    4 type  1   force =     0.00000000    0.00000000    0.00000000
     atom    5 type  2   force =     0.00000000    0.00000000    0.00000000
     atom    6 type  2   force =     0.00000000    0.00000000    0.00000000
     atom    7 type  1   force =     0.00000000    0.00000000    0.00000000
     atom    8 type  1   force =     0.00000000    0.00000000    0.00000000
     atom    9 type  2   force =     0.00000000    0.00000000    0.00000000
     atom   10 type  2   force =     0.00000000    0.00000000    0.00000000
     atom   11 type  1   force =     0.00000000    0.00000000    0.00000000
     atom   12 type  1   force =     0.00000000    0.00000000    0.00000000
     atom   13 type  1   force =     0.00000000    0.00000000    0.00000000
     atom   14 type  1   force =     0.00000000    0.00000000    0.00000000
     atom   15 type  1   force =     0.00000000    0.00000000    0.00000000
     atom   16 type  1   force =     0.00000000    0.00000000    0.00000000
     atom   17 type  2   force =     0.00000000    0.00000000    0.00000000
     atom   18 type  2   force =     0.00000000    0.00000000    0.00000000
     atom   19 type  1   force =     0.00000000    0.00000000    0.00000000
     atom   20 type  1   force =     0.00000000    0.00000000    0.00000000
     atom   21 type  2   force =     0.00000000    0.00000000    0.00000000
     atom   22 type  2   force =     0.00000000    0.00000000    0.00000000
     atom   23 type  1   force =     0.00000000    0.00000000    0.00000000
     atom   24 type  1   force =     0.00000000    0.00000000    0.00000000
     atom   25 type  1   force =     0.00000000    0.00000000    0.00000000
     atom   26 type  1   force =     0.00000000    0.00000000    0.00000000
     atom   27 type  1   force =     0.00000000    0.00000000    0.00000000
     atom   28 type  1   force =     0.00000000    0.00000000    0.00000000
     atom   29 type  2   force =     0.00000000    0.00000000    0.00000000
     atom   30 type  2   force =     0.00000000    0.00000000    0.00000000
     atom   31 type  1   force =     0.00000000    0.00000000    0.00000000
     atom   32 type  1   force =     0.00000000    0.00000000    0.00000000
     atom   33 type  2   force =     0.00000000    0.00000000    0.00000000
     atom   34 type  2   force =     0.00000000    0.00000000    0.00000000
     atom   35 type  1   force =     0.00000000    0.00000000    0.00000000
     atom   36 type  1   force =     0.00000000    0.00000000    0.00000000
     atom   37 type  1   force =     0.00000000    0.00000000    0.00000000
     atom   38 type  1   force =     0.00000000    0.00000000    0.00000000
     atom   39 type  1   force =     0.00000000    0.00000000    0.00000000
     atom   40 type  1   force =     0.00000000    0.00000000    0.00000000
     atom   41 type  3   force =     0.00000000    0.00000000    0.00000000
     atom   42 type  3   force =     0.00000000    0.00000000    0.00000000
     atom   43 type  3   force =     0.00000000    0.00000000    0.00000000
     atom   44 type  3   force =     0.00000000    0.00000000    0.00000000
     The SCF correction term to forces
     atom    1 type  1   force =     0.00000482    0.00000067    0.00000066
     atom    2 type  1   force =    -0.00000235    0.00000164    0.00000417
     atom    3 type  1   force =    -0.00000314   -0.00000005    0.00000911
     atom    4 type  1   force =     0.00000493   -0.00000142    0.00001370
     atom    5 type  2   force =     0.00000571   -0.00000109    0.00002929
     atom    6 type  2   force =    -0.00000706    0.00000106    0.00002275
     atom    7 type  1   force =     0.00000257   -0.00000547    0.00001317
     atom    8 type  1   force =    -0.00000299   -0.00000847    0.00001281
     atom    9 type  2   force =     0.00000061   -0.00000039    0.00003858
     atom   10 type  2   force =    -0.00000012    0.00000028    0.00003611
     atom   11 type  1   force =     0.00000259    0.00000562    0.00001231
     atom   12 type  1   force =    -0.00000291    0.00000797    0.00001324
     atom   13 type  1   force =    -0.00000142    0.00000013    0.00001644
     atom   14 type  1   force =     0.00000145    0.00000025    0.00000939
     atom   15 type  1   force =    -0.00000201   -0.00000011    0.00001968
     atom   16 type  1   force =     0.00000165   -0.00000019    0.00001737
     atom   17 type  2   force =    -0.00000258    0.00000010    0.00001388
     atom   18 type  2   force =     0.00000297    0.00000020    0.00001386
     atom   19 type  1   force =    -0.00000397    0.00000002    0.00000504
     atom   20 type  1   force =     0.00000398    0.00000193    0.00000508
     atom   21 type  2   force =    -0.00000158   -0.00000006    0.00001356
     atom   22 type  2   force =     0.00000221   -0.00000026    0.00001362
     atom   23 type  1   force =    -0.00000399    0.00000001    0.00000504
     atom   24 type  1   force =     0.00000398   -0.00000187    0.00000508
     atom   25 type  1   force =    -0.00000203   -0.00000012   -0.00001197
     atom   26 type  1   force =     0.00000168   -0.00000020   -0.00001027
     atom   27 type  1   force =    -0.00000152    0.00000014   -0.00001212
     atom   28 type  1   force =     0.00000156    0.00000026   -0.00000501
     atom   29 type  2   force =     0.00000575   -0.00000103   -0.00003281
     atom   30 type  2   force =    -0.00000712    0.00000112   -0.00002643
     atom   31 type  1   force =     0.00000248   -0.00000572   -0.00001420
     atom   32 type  1   force =    -0.00000293   -0.00000876   -0.00001400
     atom   33 type  2   force =     0.00000042   -0.00000045   -0.00004195
     atom   34 type  2   force =     0.00000013    0.00000022   -0.00004084
     atom   35 type  1   force =     0.00000251    0.00000586   -0.00001333
     atom   36 type  1   force =    -0.00000285    0.00000824   -0.00001440
     atom   37 type  1   force =    -0.00000325   -0.00000003   -0.00001261
     atom   38 type  1   force =     0.00000503   -0.00000142   -0.00001729
     atom   39 type  1   force =     0.00000469    0.00000065   -0.00000388
     atom   40 type  1   force =    -0.00000226    0.00000163   -0.00000733
     atom   41 type  3   force =     0.00000030    0.00000016    0.00000009
     atom   42 type  3   force =     0.00000033    0.00000016   -0.00000053
     atom   43 type  3   force =     0.00000040   -0.00000036    0.00000087
     atom   44 type  3   force =     0.00000041   -0.00000036   -0.00000131

     Total force =     0.265081     Total SCF correction =     0.000122

     BFGS Geometry Optimization
     Energy error            =      0.0E+00 Ry
     Gradient error          =      9.9E-02 Ry/Bohr

     number of scf cycles    =   1
     number of bfgs steps    =   0

     energy             new  =   -3432.5564141439 Ry

     new trust radius        =       0.0993810025 bohr
     new conv_thr            =       0.0000000010 Ry


ATOMIC_POSITIONS (crystal)
O             0.0097807574        0.5031922039        0.2712114313
O             0.4779453058        0.5027537288        0.2736182744
O            -0.0007672032        0.0008129253        0.3084184852
O             0.4968020337       -0.0026671477        0.3009983065
Ru            0.2418367874        0.0025493051        0.3567632365
Ru            0.7539307245        0.0026910072        0.3561592409
O             0.2477940601        0.3130362627        0.3591791979
O             0.7516999828        0.3153354954        0.3566662862
Ru            0.0021085556        0.5024093894        0.3582019536
Ru            0.5037330119        0.5031243720        0.3516708386
O             0.2474289020        0.6921261048        0.3594370652
O             0.7520229732        0.6900058935        0.3571229294
O            -0.0036389620        0.0017325801        0.4120338582
O             0.5017244840        0.0022990858        0.4122351816
O            -0.0002466111        0.5017960838        0.4462165935
O             0.4964847542        0.5020281093        0.4412731362
Ru           -0.0030858995        0.0023241510        0.5000010000
Ru            0.4996504399        0.0016051476        0.5000010000
O             0.2496841557        0.1888640659        0.5000010000
O             0.7472004888        0.1908359982        0.5000010000
Ru            0.2540402240        0.5019393156        0.5000010000
Ru            0.7454998274        0.5019504934        0.5000010000
O             0.2496516529        0.8149474365        0.5000010000
O             0.7471579736        0.8129756716        0.5000010000
O            -0.0002466111        0.5017960838        0.5537844065
O             0.4964847542        0.5020281093        0.5587278638
O            -0.0036389620        0.0017325801        0.5879671418
O             0.5017244840        0.0022990858        0.5877658184
Ru            0.2418367874        0.0025493051        0.6432377635
Ru            0.7539307245        0.0026910072        0.6438417591
O             0.2477940601        0.3130362627        0.6408218021
O             0.7516999828        0.3153354954        0.6433347138
Ru            0.0021085556        0.5024093894        0.6417990464
Ru            0.5037330119        0.5031243720        0.6483301614
O             0.2474289020        0.6921261048        0.6405639348
O             0.7520229732        0.6900058935        0.6428780706
O            -0.0007672032        0.0008129253        0.6915835148
O             0.4968020337       -0.0026671477        0.6990036935
O             0.0097807574        0.5031922039        0.7287895687
O             0.4779453058        0.5027537288        0.7263827256
H             0.1483175902        0.5060354852        0.2561581224
H             0.1483175902        0.5060354852        0.7438418776
H             0.4957784221        0.0672349756        0.2599222236
H             0.4957784221        0.0672349756        0.7400777764



     Writing config-only to output data dir /storage/home/mgm6007/ixd4/Maria/StrainJin_Files/RuO2-110-0-03/RuO2-110-0-03.save/
     NEW-OLD atomic charge density approx. for the potential

     Check: negative core charge=   -0.000001

     negative rho (up, down):  1.428E-04 0.000E+00

     add environment contribution to local potential
     Polarization accuracy = 2.7E-12, # of iterations =  45

     total cpu time spent up to now is    23124.8 secs

     per-process dynamical memory:   214.7 Mb

     Self-consistent Calculation

     iteration #  1     ecut=    50.00 Ry     beta= 0.70
     Davidson diagonalization with overlap
     ethr =  1.00E-06,  avg # of iterations = 11.0

     negative rho (up, down):  5.241E-04 0.000E+00

     add environment contribution to local potential
     Polarization accuracy = 5.9E-12, # of iterations =  46

     total cpu time spent up to now is    23373.6 secs

     total energy              =   -3432.58331375 Ry
     estimated scf accuracy    <       0.05058209 Ry
     electrostatic embedding   =      -0.05401492 Ry
     cavitation energy         =       0.02105377 Ry
     PV energy                 =      -0.07960740 Ry
     correction to one-el term =     193.19178398 Ry

     iteration #  2     ecut=    50.00 Ry     beta= 0.70
     Davidson diagonalization with overlap
     ethr =  1.39E-05,  avg # of iterations =  2.0

     negative rho (up, down):  4.923E-04 0.000E+00

     add environment contribution to local potential
     Polarization accuracy = 5.3E-12, # of iterations =  46

     total cpu time spent up to now is    23633.5 secs

     total energy              =   -3432.58698276 Ry
     estimated scf accuracy    <       0.08207734 Ry
     electrostatic embedding   =      -0.05496741 Ry
     cavitation energy         =       0.02105251 Ry
     PV energy                 =      -0.07953083 Ry
     correction to one-el term =     193.39823874 Ry

     iteration #  3     ecut=    50.00 Ry     beta= 0.70
     Davidson diagonalization with overlap
     ethr =  1.39E-05,  avg # of iterations =  1.0

     negative rho (up, down):  7.455E-04 0.000E+00

     add environment contribution to local potential
     Polarization accuracy = 5.4E-12, # of iterations =  46

     total cpu time spent up to now is    23902.7 secs

     total energy              =   -3432.59116562 Ry
     estimated scf accuracy    <       0.00577094 Ry
     electrostatic embedding   =      -0.05507730 Ry
     cavitation energy         =       0.02103540 Ry
     PV energy                 =      -0.07955873 Ry
     correction to one-el term =     193.33221488 Ry

     iteration #  4     ecut=    50.00 Ry     beta= 0.70
     Davidson diagonalization with overlap
     ethr =  1.59E-06,  avg # of iterations =  1.5

     negative rho (up, down):  9.946E-04 0.000E+00

     add environment contribution to local potential
     Polarization accuracy = 5.8E-12, # of iterations =  45

     total cpu time spent up to now is    24238.6 secs

     total energy              =   -3432.59135857 Ry
     estimated scf accuracy    <       0.00108773 Ry
     electrostatic embedding   =      -0.05552641 Ry
     cavitation energy         =       0.02103045 Ry
     PV energy                 =      -0.07955750 Ry
     correction to one-el term =     193.36772188 Ry

     iteration #  5     ecut=    50.00 Ry     beta= 0.70
     Davidson diagonalization with overlap
     ethr =  2.99E-07,  avg # of iterations =  2.0

     negative rho (up, down):  1.069E-03 0.000E+00

     add environment contribution to local potential
     Polarization accuracy = 5.3E-12, # of iterations =  45

     total cpu time spent up to now is    24489.9 secs

     total energy              =   -3432.59145859 Ry
     estimated scf accuracy    <       0.00087370 Ry
     electrostatic embedding   =      -0.05612968 Ry
     cavitation energy         =       0.02102020 Ry
     PV energy                 =      -0.07956085 Ry
     correction to one-el term =     193.38484172 Ry

     iteration #  6     ecut=    50.00 Ry     beta= 0.70
     Davidson diagonalization with overlap
     ethr =  2.40E-07,  avg # of iterations =  1.0

     negative rho (up, down):  1.045E-03 0.000E+00

     add environment contribution to local potential
     Polarization accuracy = 4.8E-12, # of iterations =  45

     total cpu time spent up to now is    24795.7 secs

     total energy              =   -3432.59150797 Ry
     estimated scf accuracy    <       0.00017249 Ry
     electrostatic embedding   =      -0.05647055 Ry
     cavitation energy         =       0.02101686 Ry
     PV energy                 =      -0.07956319 Ry
     correction to one-el term =     193.38887647 Ry

     iteration #  7     ecut=    50.00 Ry     beta= 0.70
     Davidson diagonalization with overlap
     ethr =  4.74E-08,  avg # of iterations =  2.0

     negative rho (up, down):  9.469E-04 0.000E+00

     add environment contribution to local potential
     Polarization accuracy = 5.3E-12, # of iterations =  45

     total cpu time spent up to now is    25095.9 secs

     total energy              =   -3432.59151908 Ry
     estimated scf accuracy    <       0.00004621 Ry
     electrostatic embedding   =      -0.05675928 Ry
     cavitation energy         =       0.02101460 Ry
     PV energy                 =      -0.07956717 Ry
     correction to one-el term =     193.37851143 Ry

     iteration #  8     ecut=    50.00 Ry     beta= 0.70
     Davidson diagonalization with overlap
     ethr =  1.27E-08,  avg # of iterations =  2.0

     negative rho (up, down):  8.268E-04 0.000E+00

     add environment contribution to local potential
     Polarization accuracy = 5.1E-12, # of iterations =  45

     total cpu time spent up to now is    25715.0 secs

     total energy              =   -3432.59152768 Ry
     estimated scf accuracy    <       0.00004260 Ry
     electrostatic embedding   =      -0.05708238 Ry
     cavitation energy         =       0.02101248 Ry
     PV energy                 =      -0.07957262 Ry
     correction to one-el term =     193.35338714 Ry

     iteration #  9     ecut=    50.00 Ry     beta= 0.70
     Davidson diagonalization with overlap
     ethr =  1.17E-08,  avg # of iterations =  2.0

     negative rho (up, down):  6.625E-04 0.000E+00

     add environment contribution to local potential
     Polarization accuracy = 4.9E-12, # of iterations =  45

     total cpu time spent up to now is    26547.0 secs

     total energy              =   -3432.59153374 Ry
     estimated scf accuracy    <       0.00000731 Ry
     electrostatic embedding   =      -0.05742245 Ry
     cavitation energy         =       0.02101109 Ry
     PV energy                 =      -0.07957721 Ry
     correction to one-el term =     193.32653242 Ry

     iteration # 10     ecut=    50.00 Ry     beta= 0.70
     Davidson diagonalization with overlap
     ethr =  2.01E-09,  avg # of iterations =  3.0

     negative rho (up, down):  4.740E-04 0.000E+00

     add environment contribution to local potential
     Polarization accuracy = 4.4E-12, # of iterations =  45

     total cpu time spent up to now is    27035.6 secs

     total energy              =   -3432.59153670 Ry
     estimated scf accuracy    <       0.00000280 Ry
     electrostatic embedding   =      -0.05774426 Ry
     cavitation energy         =       0.02101051 Ry
     PV energy                 =      -0.07958083 Ry
     correction to one-el term =     193.29477065 Ry

     iteration # 11     ecut=    50.00 Ry     beta= 0.70
     Davidson diagonalization with overlap
     ethr =  7.68E-10,  avg # of iterations =  3.0

     negative rho (up, down):  3.624E-04 0.000E+00

     add environment contribution to local potential
     Polarization accuracy = 4.2E-12, # of iterations =  45

     total cpu time spent up to now is    27346.1 secs

     total energy              =   -3432.59153806 Ry
     estimated scf accuracy    <       0.00000221 Ry
     electrostatic embedding   =      -0.05801756 Ry
     cavitation energy         =       0.02101078 Ry
     PV energy                 =      -0.07958322 Ry
     correction to one-el term =     193.26093311 Ry

     iteration # 12     ecut=    50.00 Ry     beta= 0.70
     Davidson diagonalization with overlap
     ethr =  6.07E-10,  avg # of iterations =  3.0

     negative rho (up, down):  2.516E-04 0.000E+00

     add environment contribution to local potential
     Polarization accuracy = 4.3E-12, # of iterations =  46

     total cpu time spent up to now is    27640.6 secs

     total energy              =   -3432.59153807 Ry
     estimated scf accuracy    <       0.00000052 Ry
     electrostatic embedding   =      -0.05816960 Ry
     cavitation energy         =       0.02101109 Ry
     PV energy                 =      -0.07958424 Ry
     correction to one-el term =     193.24032251 Ry

     iteration # 13     ecut=    50.00 Ry     beta= 0.70
     Davidson diagonalization with overlap
     ethr =  1.43E-10,  avg # of iterations =  3.0

     negative rho (up, down):  2.038E-04 0.000E+00

     add environment contribution to local potential
     Polarization accuracy = 4.0E-12, # of iterations =  46

     total cpu time spent up to now is    27893.4 secs

     total energy              =   -3432.59153781 Ry
     estimated scf accuracy    <       0.00000013 Ry
     electrostatic embedding   =      -0.05829657 Ry
     cavitation energy         =       0.02101170 Ry
     PV energy                 =      -0.07958455 Ry
[...]
     atom   40 type  1   force =     0.00186034   -0.00213326  101.57677309
     atom   41 type  3   force =     2.76651383    0.00831490  -16.61226998
     atom   42 type  3   force =     2.76659719    0.00831510   16.61228359
     atom   43 type  3   force =     0.02410276    0.01409760  -18.42208794
     atom   44 type  3   force =     0.02410158    0.01409996   18.42245473
     The local contribution  to forces
     atom    1 type  1   force =     1.49067391    0.00253926   96.64427379
     atom    2 type  1   force =     0.02657837    0.00231945  100.30225911
     atom    3 type  1   force =     0.17784358   -0.00018377   94.57707070
     atom    4 type  1   force =    -0.15423058    0.00698788   91.79678945
     atom    5 type  2   force =    -3.77582230   -0.00088790  174.98756232
     atom    6 type  2   force =     3.76024915    0.00045026  175.56080246
     atom    7 type  1   force =    -1.04755755    0.49115768   62.55829964
     atom    8 type  1   force =     0.67144055    0.57963644   64.05885230
     atom    9 type  2   force =     0.79521612   -0.00116199  170.75092042
     atom   10 type  2   force =    -0.59377769   -0.00455284  174.41176661
     atom   11 type  1   force =    -1.04698199   -0.49134000   62.56055096
     atom   12 type  1   force =     0.67060821   -0.58050259   64.04858863
     atom   13 type  1   force =     0.09950456    0.00008992   37.95150423
     atom   14 type  1   force =    -0.03236519   -0.00057489   39.76749809
     atom   15 type  1   force =     0.11177724    0.00013500   25.24414472
     atom   16 type  1   force =    -0.20184054    0.00066348   26.89092490
     atom   17 type  2   force =     0.21390775    0.00254904   -0.00586757
     atom   18 type  2   force =     0.14369685    0.00352291   -0.00589250
     atom   19 type  1   force =    -0.29274362   -0.48914890   -0.00247018
     atom   20 type  1   force =     0.27952081   -0.55132298   -0.00247403
     atom   21 type  2   force =    -1.59729527   -0.00049958   -0.00605264
     atom   22 type  2   force =     1.63967715    0.00061367   -0.00606469
     atom   23 type  1   force =    -0.29188705    0.48926822   -0.00247021
     atom   24 type  1   force =     0.27885616    0.55068796   -0.00247405
     atom   25 type  1   force =     0.11178093    0.00013506  -25.24591259
     atom   26 type  1   force =    -0.20183415    0.00066357  -26.89270835
     atom   27 type  1   force =     0.09950383    0.00008997  -37.95326896
     atom   28 type  1   force =    -0.03236112   -0.00057481  -39.76927557
     atom   29 type  2   force =    -3.77582026   -0.00088789 -174.99367606
     atom   30 type  2   force =     3.76024761    0.00045038 -175.56691549
     atom   31 type  1   force =    -1.04753773    0.49115977  -62.56076111
     atom   32 type  1   force =     0.67141957    0.57963866  -64.06132913
     atom   33 type  2   force =     0.79521653   -0.00116187 -170.75678042
     atom   34 type  2   force =    -0.59380657   -0.00455301 -174.41751727
     atom   35 type  1   force =    -1.04696219   -0.49134209  -62.56301246
     atom   36 type  1   force =     0.67058727   -0.58050482  -64.05106543
     atom   37 type  1   force =     0.17783986   -0.00018390  -94.58091214
     atom   38 type  1   force =    -0.15423072    0.00698890  -91.80050627
     atom   39 type  1   force =     1.49070669    0.00253939  -96.64581653
     atom   40 type  1   force =     0.02653773    0.00231919 -100.30365196
     atom   41 type  3   force =    -2.68901118   -0.00816597   16.58085928
     atom   42 type  3   force =    -2.68901118   -0.00816597  -16.58085928
     atom   43 type  3   force =    -0.02014924   -0.01374013   18.36921168
     atom   44 type  3   force =    -0.02014924   -0.01374013  -18.36921168
     The core correction contribution to forces
     atom    1 type  1   force =    -0.01797327   -0.00004054   -0.00408884
     atom    2 type  1   force =    -0.00020085   -0.00000287   -0.01056211
     atom    3 type  1   force =    -0.00010659   -0.00000140   -0.01153828
     atom    4 type  1   force =     0.00010545   -0.00010693    0.00946474
     atom    5 type  2   force =     0.00000000    0.00000000    0.00000000
     atom    6 type  2   force =     0.00000000    0.00000000    0.00000000
     atom    7 type  1   force =     0.00001284    0.00014817    0.00101707
     atom    8 type  1   force =     0.00078583    0.00003820    0.00041221
     atom    9 type  2   force =     0.00000000    0.00000000    0.00000000
     atom   10 type  2   force =     0.00000000    0.00000000    0.00000000
     atom   11 type  1   force =     0.00001122   -0.00014680    0.00101620
     atom   12 type  1   force =     0.00078702   -0.00003460    0.00041597
     atom   13 type  1   force =     0.00001402   -0.00000297    0.00075548
     atom   14 type  1   force =    -0.00009084    0.00000119   -0.00142905
     atom   15 type  1   force =     0.00028693   -0.00000196   -0.00000939
     atom   16 type  1   force =     0.00008973    0.00000212   -0.00243443
     atom   17 type  2   force =     0.00000000    0.00000000    0.00000000
     atom   18 type  2   force =     0.00000000    0.00000000    0.00000000
     atom   19 type  1   force =    -0.00017383   -0.00034649   -0.00000207
     atom   20 type  1   force =    -0.00005922   -0.00029430   -0.00000209
     atom   21 type  2   force =     0.00000000    0.00000000    0.00000000
     atom   22 type  2   force =     0.00000000    0.00000000    0.00000000
     atom   23 type  1   force =    -0.00017449    0.00034572   -0.00000208
     atom   24 type  1   force =    -0.00005851    0.00029352   -0.00000209
     atom   25 type  1   force =     0.00028688   -0.00000196    0.00000725
     atom   26 type  1   force =     0.00008976    0.00000212    0.00243237
     atom   27 type  1   force =     0.00001402   -0.00000297   -0.00075784
     atom   28 type  1   force =    -0.00009085    0.00000119    0.00142680
     atom   29 type  2   force =     0.00000000    0.00000000    0.00000000
     atom   30 type  2   force =     0.00000000    0.00000000    0.00000000
     atom   31 type  1   force =     0.00001284    0.00014806   -0.00101887
     atom   32 type  1   force =     0.00078583    0.00003819   -0.00041406
     atom   33 type  2   force =     0.00000000    0.00000000    0.00000000
     atom   34 type  2   force =     0.00000000    0.00000000    0.00000000
     atom   35 type  1   force =     0.00001122   -0.00014669   -0.00101800
     atom   36 type  1   force =     0.00078701   -0.00003458   -0.00041782
     atom   37 type  1   force =    -0.00010656   -0.00000140    0.01153428
     atom   38 type  1   force =     0.00010544   -0.00010695   -0.00947042
     atom   39 type  1   force =    -0.01797407   -0.00004054    0.00408655
     atom   40 type  1   force =    -0.00020108   -0.00000287    0.01056037
     atom   41 type  3   force =     0.00000000    0.00000000    0.00000000
     atom   42 type  3   force =     0.00000000    0.00000000    0.00000000
     atom   43 type  3   force =     0.00000000    0.00000000    0.00000000
     atom   44 type  3   force =     0.00000000    0.00000000    0.00000000
     The Hubbard contrib.    to forces
     atom    1 type  1   force =     0.00000000    0.00000000    0.00000000
     atom    2 type  1   force =     0.00000000    0.00000000    0.00000000
     atom    3 type  1   force =     0.00000000    0.00000000    0.00000000
     atom    4 type  1   force =     0.00000000    0.00000000    0.00000000
     atom    5 type  2   force =     0.00000000    0.00000000    0.00000000
     atom    6 type  2   force =     0.00000000    0.00000000    0.00000000
     atom    7 type  1   force =     0.00000000    0.00000000    0.00000000
     atom    8 type  1   force =     0.00000000    0.00000000    0.00000000
     atom    9 type  2   force =     0.00000000    0.00000000    0.00000000
     atom   10 type  2   force =     0.00000000    0.00000000    0.00000000
     atom   11 type  1   force =     0.00000000    0.00000000    0.00000000
     atom   12 type  1   force =     0.00000000    0.00000000    0.00000000
     atom   13 type  1   force =     0.00000000    0.00000000    0.00000000
     atom   14 type  1   force =     0.00000000    0.00000000    0.00000000
     atom   15 type  1   force =     0.00000000    0.00000000    0.00000000
     atom   16 type  1   force =     0.00000000    0.00000000    0.00000000
     atom   17 type  2   force =     0.00000000    0.00000000    0.00000000
     atom   18 type  2   force =     0.00000000    0.00000000    0.00000000
     atom   19 type  1   force =     0.00000000    0.00000000    0.00000000
     atom   20 type  1   force =     0.00000000    0.00000000    0.00000000
     atom   21 type  2   force =     0.00000000    0.00000000    0.00000000
     atom   22 type  2   force =     0.00000000    0.00000000    0.00000000
     atom   23 type  1   force =     0.00000000    0.00000000    0.00000000
     atom   24 type  1   force =     0.00000000    0.00000000    0.00000000
     atom   25 type  1   force =     0.00000000    0.00000000    0.00000000
     atom   26 type  1   force =     0.00000000    0.00000000    0.00000000
     atom   27 type  1   force =     0.00000000    0.00000000    0.00000000
     atom   28 type  1   force =     0.00000000    0.00000000    0.00000000
     atom   29 type  2   force =     0.00000000    0.00000000    0.00000000
     atom   30 type  2   force =     0.00000000    0.00000000    0.00000000
     atom   31 type  1   force =     0.00000000    0.00000000    0.00000000
     atom   32 type  1   force =     0.00000000    0.00000000    0.00000000
     atom   33 type  2   force =     0.00000000    0.00000000    0.00000000
     atom   34 type  2   force =     0.00000000    0.00000000    0.00000000
     atom   35 type  1   force =     0.00000000    0.00000000    0.00000000
     atom   36 type  1   force =     0.00000000    0.00000000    0.00000000
     atom   37 type  1   force =     0.00000000    0.00000000    0.00000000
     atom   38 type  1   force =     0.00000000    0.00000000    0.00000000
     atom   39 type  1   force =     0.00000000    0.00000000    0.00000000
     atom   40 type  1   force =     0.00000000    0.00000000    0.00000000
     atom   41 type  3   force =     0.00000000    0.00000000    0.00000000
     atom   42 type  3   force =     0.00000000    0.00000000    0.00000000
     atom   43 type  3   force =     0.00000000    0.00000000    0.00000000
     atom   44 type  3   force =     0.00000000    0.00000000    0.00000000
     The SCF correction term to forces
     atom    1 type  1   force =     0.00000012   -0.00000055   -0.00000150
     atom    2 type  1   force =     0.00000002   -0.00000039   -0.00000102
     atom    3 type  1   force =     0.00000050    0.00000026   -0.00000072
     atom    4 type  1   force =    -0.00000045    0.00000043   -0.00000076
     atom    5 type  2   force =     0.00000148    0.00000071   -0.00000112
     atom    6 type  2   force =    -0.00000144    0.00000077   -0.00000048
     atom    7 type  1   force =     0.00000064   -0.00000068   -0.00000050
     atom    8 type  1   force =    -0.00000074   -0.00000005   -0.00000013
     atom    9 type  2   force =    -0.00000006   -0.00000075   -0.00000053
     atom   10 type  2   force =     0.00000024   -0.00000081   -0.00000049
     atom   11 type  1   force =     0.00000058    0.00000046   -0.00000032
     atom   12 type  1   force =    -0.00000068   -0.00000022    0.00000008
     atom   13 type  1   force =     0.00000021    0.00000010   -0.00000046
     atom   14 type  1   force =    -0.00000007    0.00000018    0.00000001
     atom   15 type  1   force =    -0.00000102   -0.00000013    0.00000113
     atom   16 type  1   force =     0.00000123   -0.00000015    0.00000077
     atom   17 type  2   force =    -0.00000081   -0.00000005   -0.00000001
     atom   18 type  2   force =     0.00000096    0.00000003   -0.00000001
     atom   19 type  1   force =     0.00000081    0.00000039   -0.00000000
     atom   20 type  1   force =    -0.00000093    0.00000165   -0.00000000
     atom   21 type  2   force =     0.00000083   -0.00000004   -0.00000001
     atom   22 type  2   force =    -0.00000115   -0.00000004   -0.00000001
     atom   23 type  1   force =     0.00000077   -0.00000040   -0.00000000
     atom   24 type  1   force =    -0.00000088   -0.00000167   -0.00000000
     atom   25 type  1   force =    -0.00000102   -0.00000013   -0.00000114
     atom   26 type  1   force =     0.00000123   -0.00000015   -0.00000078
     atom   27 type  1   force =     0.00000022    0.00000010    0.00000046
     atom   28 type  1   force =    -0.00000007    0.00000018   -0.00000002
     atom   29 type  2   force =     0.00000148    0.00000071    0.00000111
     atom   30 type  2   force =    -0.00000143    0.00000077    0.00000047
     atom   31 type  1   force =     0.00000064   -0.00000068    0.00000050
     atom   32 type  1   force =    -0.00000074   -0.00000005    0.00000013
     atom   33 type  2   force =    -0.00000006   -0.00000075    0.00000052
     atom   34 type  2   force =     0.00000023   -0.00000081    0.00000049
     atom   35 type  1   force =     0.00000058    0.00000046    0.00000031
     atom   36 type  1   force =    -0.00000068   -0.00000022   -0.00000009
     atom   37 type  1   force =     0.00000050    0.00000026    0.00000072
     atom   38 type  1   force =    -0.00000045    0.00000043    0.00000076
     atom   39 type  1   force =     0.00000012   -0.00000055    0.00000150
     atom   40 type  1   force =     0.00000002   -0.00000039    0.00000102
     atom   41 type  3   force =     0.00000006   -0.00000005   -0.00000019
     atom   42 type  3   force =     0.00000006   -0.00000005    0.00000019
     atom   43 type  3   force =    -0.00000003    0.00000004   -0.00000011
     atom   44 type  3   force =    -0.00000003    0.00000004    0.00000011

     Total force =     0.000175     Total SCF correction =     0.000007
     Energy error            =      6.5E-08 Ry
     Gradient error          =      8.0E-05 Ry/Bohr

     bfgs converged in  69 scf cycles and  68 bfgs steps
     (criteria: energy <  1.0E-04 Ry, force <  1.0E-04 Ry/Bohr)

     End of BFGS Geometry Optimization

     Final energy             =   -3432.6004561877 Ry

     File /storage/home/mgm6007/ixd4/Maria/StrainJin_Files/RuO2-110-0-03/RuO2-110-0-03.bfgs deleted, as requested
Begin final coordinates

ATOMIC_POSITIONS (crystal)
O             0.0022350220        0.5052043474        0.2712203310
O             0.4843994030        0.5050588773        0.2745646866
O            -0.0002455759        0.0051464912        0.3069176106
O             0.4979041664        0.0051046007        0.3025451227
Ru            0.2409262093        0.0051648823        0.3564884264
Ru            0.7563849579        0.0051693088        0.3561648130
O             0.2481115023        0.3169571335        0.3600841937
O             0.7519144492        0.3182682836        0.3581371973
Ru            0.0013152677        0.5051599644        0.3583370644
Ru            0.5023400730        0.5051675181        0.3526028593
O             0.2481216930        0.6933657123        0.3600792408
O             0.7518996369        0.6920552556        0.3581525996
O            -0.0020521369        0.0051439102        0.4110955331
O             0.5002769315        0.0051441306        0.4118471137
O             0.0007318044        0.5051058647        0.4465228470
O             0.4997984942        0.5051114170        0.4436284497
Ru           -0.0018606031        0.0051068944        0.5000010000
Ru            0.4985182717        0.0050891994        0.5000010000
O             0.2478226905        0.1915446047        0.5000010000
O             0.7473841414        0.1917686612        0.5000010000
Ru            0.2532205245        0.5050944702        0.5000010000
Ru            0.7498475742        0.5050947314        0.5000010000
O             0.2478119616        0.8186485410        0.5000010000
O             0.7473973041        0.8184212195        0.5000010000
O             0.0007318044        0.5051058647        0.5534781530
O             0.4997984942        0.5051114170        0.5563725503
O            -0.0020521369        0.0051439102        0.5889054669
O             0.5002769315        0.0051441306        0.5881538863
Ru            0.2409262093        0.0051648823        0.6435125736
Ru            0.7563849579        0.0051693088        0.6438361870
O             0.2481115023        0.3169571335        0.6399168063
O             0.7519144492        0.3182682836        0.6418638027
Ru            0.0013152677        0.5051599644        0.6416639356
Ru            0.5023400730        0.5051675181        0.6473981407
O             0.2481216930        0.6933657123        0.6399217592
O             0.7518996369        0.6920552556        0.6418484004
O            -0.0002455759        0.0051464912        0.6930843894
O             0.4979041664        0.0051046007        0.6974568773
O             0.0022350220        0.5052043474        0.7287806690
O             0.4843994030        0.5050588773        0.7254363134
H             0.1409917197        0.5055894490        0.2545363385
H             0.1409917197        0.5055894490        0.7454636615
H             0.4975104497        0.0059156923        0.2584010686
H             0.4975104497        0.0059156923        0.7415989314
End final coordinates



     Writing all to output data dir /storage/home/mgm6007/ixd4/Maria/StrainJin_Files/RuO2-110-0-03/RuO2-110-0-03.save/
 
     init_run     :    596.60s CPU    994.23s WALL (       1 calls)
     electrons    :  93727.54s CPU 193839.47s WALL (      69 calls)
     update_pot   :    115.08s CPU    116.86s WALL (      68 calls)
     forces       :    125.28s CPU    127.82s WALL (      69 calls)

     Called by init_run:
     wfcinit      :      0.99s CPU      1.00s WALL (       1 calls)
     potinit      :    440.57s CPU    668.20s WALL (       1 calls)
     hinit0       :    154.58s CPU    324.53s WALL (       1 calls)

     Called by electrons:
     c_bands      :   3406.79s CPU   3502.76s WALL (    1297 calls)
     sum_band     :    578.53s CPU    597.24s WALL (    1297 calls)
     v_of_rho     :    170.27s CPU    172.68s WALL (    1303 calls)
     newd         :     86.93s CPU     88.23s WALL (    1303 calls)
     PAW_pot      :    157.48s CPU    160.10s WALL (    1371 calls)
     mix_rho      :   1024.54s CPU   1073.60s WALL (    1297 calls)

     Called by c_bands:
     init_us_2    :     38.63s CPU     38.98s WALL (    5464 calls)
     init_us_2:cp :     38.59s CPU     38.96s WALL (    5464 calls)
     cegterg      :   3271.09s CPU   3364.59s WALL (    2594 calls)

     Called by *egterg:
     cdiaghg      :    388.70s CPU    395.52s WALL (    8203 calls)
     h_psi        :   1656.77s CPU   1719.35s WALL (    8467 calls)
     s_psi        :    253.60s CPU    257.43s WALL (    8467 calls)
     g_psi        :      8.12s CPU      8.19s WALL (    5871 calls)

     Called by h_psi:
     h_psi:calbec :    261.49s CPU    266.68s WALL (    8467 calls)
     vloc_psi     :   1118.34s CPU   1171.41s WALL (    8467 calls)
     add_vuspsi   :    256.84s CPU    261.01s WALL (    8467 calls)

     General routines
     calbec       :    409.07s CPU    416.65s WALL (   11749 calls)
     fft          :  21686.40s CPU  28186.77s WALL (   17691 calls)
     ffts         :    361.53s CPU    372.62s WALL (  562183 calls)
     fftw         :   1026.02s CPU   1085.35s WALL ( 3034392 calls)
     interpolate  :  21585.54s CPU  28084.47s WALL (    1303 calls)
 
     Parallel routines
 
     Environ routines
 
     PWSCF        :   1d 3h36m CPU   2d 8h48m WALL

 
   This run was terminated on:  20: 5: 1  28Jul2023            

=------------------------------------------------------------------------------=
   JOB DONE.
=------------------------------------------------------------------------------=
