
     Program PWSCF v.7.2 starts on 18Jul2023 at 16:14: 3 
        Git branch: heads/qe-7.2
        Last git commit: b4c5e8deeb7d1863e7553a87b45f8d22c21926a5
        Last git commit date: Mon Mar 27 16:12:09 2023 +0000
        Last git commit subject: Merge branch 'merge_fix_hubbard' into 'develop'

     This program is part of the open-source Quantum ESPRESSO suite
     for quantum simulation of materials; please cite
         "P. Giannozzi et al., J. Phys.:Condens. Matter 21 395502 (2009);
         "P. Giannozzi et al., J. Phys.:Condens. Matter 29 465901 (2017);
         "P. Giannozzi et al., J. Chem. Phys. 152 154105 (2020);
          URL http://www.quantum-espresso.org", 
     in publications or presentations arising from this work. More details at
     http://www.quantum-espresso.org/quote

     Parallel version (MPI), running on    20 processors

     MPI processes distributed on     1 nodes
     104602 MiB available memory on the printing compute node when the environment starts
 
     Reading input from RuO2-110-0-01.in

     Current dimensions of program PWSCF are:
     Max number of different atomic species (ntypx) = 10
     Max number of k-points (npk) =  40000
     Max angular momentum in pseudopotentials (lmaxx) =  4
 
     Reading input from environ.in:
     * Environ restarting
     * setting up water environment
     * using electronic solvent mode
     * setting boundary derivatives method to SCCS default
     
     file O.pbe-n-kjpaw_psl.0.1.UPF: wavefunction(s)  2P renormalized
     Found identity + ( -0.5000  0.0000 -0.0000) symmetry
     This is a supercell, fractional translations are disabled
     Message from routine setup:
     using ibrav=0 with symmetry is DISCOURAGED, use correct ibrav instead
 
     R & G space division:  proc/nbgrp/npool/nimage =      20
     Subspace diagonalization in iterative solution of the eigenvalue problem:
     one sub-group per band group will be used
     scalapack distributed-memory algorithm (size of sub-group:  2*  2 procs)

 
     Parallelization info
     --------------------
     sticks:   dense  smooth     PW     G-vecs:    dense   smooth      PW
     Min         282     113     29                56190    14217    1913
     Max         283     114     30                56201    14227    1932
     Sum        5657    2263    593              1123933   284439   38425
 
     Using Slab Decomposition
 


     bravais-lattice index     =            0
     lattice parameter (alat)  =      12.1041  a.u.
     unit-cell volume          =    5954.5483 (a.u.)^3
     number of atoms/cell      =           44
     number of atomic types    =            3
     number of electrons       =       364.00
     number of Kohn-Sham states=          218
     kinetic-energy cutoff     =      50.0000  Ry
     charge density cutoff     =     500.0000  Ry
     scf convergence threshold =      1.0E-09
     mixing beta               =       0.7000
     number of iterations used =            8  local-TF  mixing
     energy convergence thresh.=      1.0E-04
     force convergence thresh. =      1.0E-04
     Exchange-correlation= PBE
                           (   1   4   3   4   0   0   0)
     nstep                     =          200


     ================================================================================
 
                                  Environ Setup Summary

     ================================================================================
 
     Please cite

          O. Andreussi, I. Dabo and N. Marzari, J. Chem. Phys. 136, 064102 (2012)

     in publications or presentations arising from this work.

     ================================================================================
 
     Parameters
     ==========

     compensation onset threshold      =               0.1000E+00
     static permittivity               =                    78.30
     surface tension in input (dyn/cm) =                    47.90
     surface tension in internal units =               0.6153E-04
     external pressure in input (GPa)  =                    -0.36
     external pressure in inter. units =              -0.2447E-04

     Solvent Boundary
     ================

     solvent mode                      =               electronic
     derivatives method                =                    chain
     numerical core for derivatives    =                      fft
     switching function adopted        =                     SCCS
     density limit for vacuum region   =               0.5000E-02
     density limit for bulk solvent    =               0.1000E-03

     Electrostatic Setup
     ===================

     electrostatic problem to solve    =              generalized
     numerical solver adopted          =                       cg
     type of auxiliary density adopted =                     none
     numerical core for poisson        =                      fft
     type of pbc corrections           =                parabolic
     numerical core for corrections    =                      1da

     ================================================================================
 

     celldm(1)=  12.104053  celldm(2)=   0.000000  celldm(3)=   0.000000
     celldm(4)=   0.000000  celldm(5)=   0.000000  celldm(6)=   0.000000

     crystal axes: (cart. coord. in units of alat)
               a(1) = (   1.000000   0.000000   0.000000 )  
               a(2) = (   0.000000   0.971735   0.000000 )  
               a(3) = (   0.000000   0.000000   3.455479 )  

     reciprocal axes: (cart. coord. in units 2 pi/alat)
               b(1) = (  1.000000  0.000000  0.000000 )  
               b(2) = (  0.000000  1.029087  0.000000 )  
               b(3) = (  0.000000  0.000000  0.289395 )  


     PseudoPot. # 1 for O  read from file:
     /gpfs/group/ixd4/default/Simon/pseudopotentials/materialscloud/SSSP_1.3.0_PBE_efficiency/O.pbe-n-kjpaw_psl.0.1.UPF
     MD5 check sum: 0234752ac141de4415c5fc33072bef88
     Pseudo is Projector augmented-wave + core cor, Zval =  6.0
     Generated using "atomic" code by A. Dal Corso  v.5.0.99 svn rev. 10869
     Shape of augmentation charge: BESSEL
     Using radial grid of 1095 points,  4 beta functions with: 
                l(1) =   0
                l(2) =   0
                l(3) =   1
                l(4) =   1
     Q(r) pseudized with 0 coefficients 


     PseudoPot. # 2 for Ru read from file:
     /gpfs/group/ixd4/default/Simon/pseudopotentials/materialscloud/SSSP_1.3.0_PBE_efficiency/Ru_ONCV_PBE-1.0.oncvpsp.upf
     MD5 check sum: be037bb81c227cfb9b1461a9f099f4bd
     Pseudo is Norm-conserving, Zval = 16.0
     Generated using ONCVPSP code by D. R. Hamann
     Using radial grid of 1458 points,  6 beta functions with: 
                l(1) =   0
                l(2) =   0
                l(3) =   1
                l(4) =   1
                l(5) =   2
                l(6) =   2

     PseudoPot. # 3 for H  read from file:
     /gpfs/group/ixd4/default/Simon/pseudopotentials/materialscloud/SSSP_1.3.0_PBE_efficiency/H.pbe-rrkjus_psl.1.0.0.UPF
     MD5 check sum: f52b6d4d1c606e5624b1dc7b2218f220
     Pseudo is Ultrasoft, Zval =  1.0
     Generated using "atomic" code by A. Dal Corso  v.5.1
     Using radial grid of  929 points,  2 beta functions with: 
                l(1) =   0
                l(2) =   0
     Q(r) pseudized with 0 coefficients 


     atomic species   valence    mass     pseudopotential
        O              6.00    15.99940     O ( 1.00)
        Ru            16.00   101.07000     Ru( 1.00)
        H              1.00     1.00794     H ( 1.00)

      4 Sym. Ops. (no inversion) found



   Cartesian axes

     site n.     atom                  positions (alat units)
         1           O   tau(   1) = (  -0.0094134   0.4858677   0.9372339  )
         2           O   tau(   2) = (   0.4905867   0.4858677   0.9372326  )
         3           O   tau(   3) = (  -0.0013620   0.0000000   1.0620342  )
         4           O   tau(   4) = (   0.4986380   0.0000000   1.0620343  )
         5           Ru  tau(   5) = (   0.2484598   0.0000000   1.2242810  )
         6           Ru  tau(   6) = (   0.7484599   0.0000000   1.2242811  )
         7           O   tau(   7) = (   0.2475050   0.3001945   1.2354772  )
         8           O   tau(   8) = (   0.7475051   0.3001944   1.2354772  )
         9           Ru  tau(   9) = (  -0.0033462   0.4858677   1.2353377  )
        10           Ru  tau(  10) = (   0.4966540   0.4858677   1.2353361  )
        11           O   tau(  11) = (   0.2475050   0.6715409   1.2354772  )
        12           O   tau(  12) = (   0.7475051   0.6715410   1.2354772  )
        13           O   tau(  13) = (  -0.0007368   0.0000000   1.4250651  )
        14           O   tau(  14) = (   0.4992628   0.0000000   1.4250651  )
        15           O   tau(  15) = (   0.0064095   0.4858677   1.5360794  )
        16           O   tau(  16) = (   0.5064096   0.4858677   1.5360765  )
        17           Ru  tau(  17) = (   0.0008011   0.0000000   1.7277432  )
        18           Ru  tau(  18) = (   0.5008004   0.0000000   1.7277432  )
        19           O   tau(  19) = (   0.2511985   0.1881412   1.7277432  )
        20           O   tau(  20) = (   0.7511981   0.1881403   1.7277432  )
        21           Ru  tau(  21) = (   0.2517502   0.4858677   1.7277432  )
        22           Ru  tau(  22) = (   0.7517481   0.4858677   1.7277432  )
        23           O   tau(  23) = (   0.2511985   0.7835952   1.7277432  )
        24           O   tau(  24) = (   0.7511981   0.7835961   1.7277432  )
        25           O   tau(  25) = (   0.0064095   0.4858677   1.9194035  )
        26           O   tau(  26) = (   0.5064096   0.4858677   1.9194065  )
        27           O   tau(  27) = (  -0.0007368   0.0000000   2.0304178  )
        28           O   tau(  28) = (   0.4992628   0.0000000   2.0304178  )
        29           Ru  tau(  29) = (   0.2484598   0.0000000   2.2312020  )
        30           Ru  tau(  30) = (   0.7484599   0.0000000   2.2312019  )
        31           O   tau(  31) = (   0.2475050   0.3001945   2.2200057  )
        32           O   tau(  32) = (   0.7475051   0.3001944   2.2200058  )
        33           Ru  tau(  33) = (  -0.0033462   0.4858677   2.2201453  )
        34           Ru  tau(  34) = (   0.4966540   0.4858677   2.2201468  )
        35           O   tau(  35) = (   0.2475050   0.6715409   2.2200057  )
        36           O   tau(  36) = (   0.7475051   0.6715410   2.2200058  )
        37           O   tau(  37) = (  -0.0013620   0.0000000   2.3934522  )
        38           O   tau(  38) = (   0.4986380   0.0000000   2.3934521  )
        39           O   tau(  39) = (  -0.0094134   0.4858677   2.5182491  )
        40           O   tau(  40) = (   0.4905867   0.4858677   2.5182504  )
        41           H   tau(  41) = (   0.1301407   0.4858677   0.8724011  )
        42           H   tau(  42) = (   0.1301407   0.4858677   2.5830784  )
        43           H   tau(  43) = (   0.6301408   0.4858677   0.8724001  )
        44           H   tau(  44) = (   0.6301408   0.4858677   2.5830794  )

     number of k points=     1  Marzari-Vanderbilt smearing, width (Ry)=  0.0300
                       cart. coord. in units 2pi/alat
        k(    1) = (   0.2500000   0.2572717   0.0000000), wk =   2.0000000

     Dense  grid:  1123933 G-vectors     FFT dimensions: (  90,  90, 300)

     Smooth grid:   284439 G-vectors     FFT dimensions: (  60,  54, 192)

     Estimated max dynamical RAM per process >     172.76 MB

     Estimated total dynamical RAM >       3.37 GB

     Check: negative core charge=   -0.000001

     Initial potential from superposition of free atoms

     starting charge     363.9933, renormalised to     364.0000

     add environment contribution to local potential
     Polarization accuracy = 8.7E-12, # of iterations =  21

     negative rho (up, down):  2.915E-05 0.000E+00
     Starting wfcs are  236 randomized atomic wfcs
     Checking if some PAW data can be deallocated... 

     total cpu time spent up to now is      868.5 secs

     per-process dynamical memory:   144.8 Mb

     Self-consistent Calculation

     iteration #  1     ecut=    50.00 Ry     beta= 0.70
     Davidson diagonalization with overlap
     ethr =  1.00E-02,  avg # of iterations =  2.0

     negative rho (up, down):  4.354E-08 0.000E+00

     total cpu time spent up to now is     1214.5 secs

     total energy              =   -3430.19554598 Ry
     estimated scf accuracy    <      10.29680792 Ry
     electrostatic embedding   =      -0.00186463 Ry
     cavitation energy         =       0.02014220 Ry
     PV energy                 =      -0.08458451 Ry
     correction to one-el term =     212.90162433 Ry

     iteration #  2     ecut=    50.00 Ry     beta= 0.70
     Davidson diagonalization with overlap
     ethr =  2.83E-03,  avg # of iterations =  2.0

     total cpu time spent up to now is     1481.5 secs

     total energy              =   -3432.55352368 Ry
     estimated scf accuracy    <       2.12228093 Ry
     electrostatic embedding   =      -0.00255581 Ry
     cavitation energy         =       0.02019207 Ry
     PV energy                 =      -0.08464461 Ry
     correction to one-el term =     212.90353841 Ry

     iteration #  3     ecut=    50.00 Ry     beta= 0.70
     Davidson diagonalization with overlap
     ethr =  5.83E-04,  avg # of iterations =  1.0

     total cpu time spent up to now is     1768.4 secs

     total energy              =   -3432.79503780 Ry
     estimated scf accuracy    <       0.13787295 Ry
     electrostatic embedding   =      -0.00278638 Ry
     cavitation energy         =       0.02025767 Ry
     PV energy                 =      -0.08444932 Ry
     correction to one-el term =     212.90406465 Ry

     iteration #  4     ecut=    50.00 Ry     beta= 0.70
     Davidson diagonalization with overlap
     ethr =  3.79E-05,  avg # of iterations =  4.0

     add environment contribution to local potential
     Polarization accuracy = 7.8E-12, # of iterations =  30

     total cpu time spent up to now is     2105.9 secs

     total energy              =   -3432.80610612 Ry
     estimated scf accuracy    <       0.08173611 Ry
     electrostatic embedding   =      -0.00284785 Ry
     cavitation energy         =       0.02048175 Ry
     PV energy                 =      -0.08372456 Ry
     correction to one-el term =     212.90390271 Ry

     iteration #  5     ecut=    50.00 Ry     beta= 0.70
     Davidson diagonalization with overlap
     ethr =  2.25E-05,  avg # of iterations =  2.0

     add environment contribution to local potential
     Polarization accuracy = 2.4E-12, # of iterations =  32

     total cpu time spent up to now is     2465.4 secs

     total energy              =   -3432.81927598 Ry
     estimated scf accuracy    <       0.05776166 Ry
     electrostatic embedding   =      -0.01906324 Ry
     cavitation energy         =       0.02084195 Ry
     PV energy                 =      -0.08282701 Ry
     correction to one-el term =     194.39704680 Ry

     iteration #  6     ecut=    50.00 Ry     beta= 0.70
     Davidson diagonalization with overlap
     ethr =  1.59E-05,  avg # of iterations =  1.0

     add environment contribution to local potential
     Polarization accuracy = 7.9E-12, # of iterations =  32

     total cpu time spent up to now is     2757.1 secs

     total energy              =   -3432.82156857 Ry
     estimated scf accuracy    <       0.03611538 Ry
     electrostatic embedding   =      -0.02241339 Ry
     cavitation energy         =       0.02108890 Ry
     PV energy                 =      -0.08229746 Ry
     correction to one-el term =     192.19874194 Ry

     iteration #  7     ecut=    50.00 Ry     beta= 0.70
     Davidson diagonalization with overlap
     ethr =  9.92E-06,  avg # of iterations =  1.0

     add environment contribution to local potential
     Polarization accuracy = 7.7E-12, # of iterations =  36

     total cpu time spent up to now is     3111.7 secs

     total energy              =   -3432.81883204 Ry
     estimated scf accuracy    <       0.02840418 Ry
     electrostatic embedding   =      -0.02410962 Ry
     cavitation energy         =       0.02123099 Ry
     PV energy                 =      -0.08198530 Ry
     correction to one-el term =     191.19425532 Ry

     iteration #  8     ecut=    50.00 Ry     beta= 0.70
     Davidson diagonalization with overlap
     ethr =  7.80E-06,  avg # of iterations =  1.0

     add environment contribution to local potential
     Polarization accuracy = 5.0E-12, # of iterations =  41

     total cpu time spent up to now is     3411.5 secs

     total energy              =   -3432.81712653 Ry
     estimated scf accuracy    <       0.01950656 Ry
     electrostatic embedding   =      -0.02743316 Ry
     cavitation energy         =       0.02152476 Ry
     PV energy                 =      -0.08134615 Ry
     correction to one-el term =     189.56073465 Ry

     iteration #  9     ecut=    50.00 Ry     beta= 0.70
     Davidson diagonalization with overlap
     ethr =  5.36E-06,  avg # of iterations =  1.0

     add environment contribution to local potential
     Polarization accuracy = 4.3E-12, # of iterations =  41

     total cpu time spent up to now is     3692.9 secs

     total energy              =   -3432.81830845 Ry
     estimated scf accuracy    <       0.01460487 Ry
     electrostatic embedding   =      -0.03120848 Ry
     cavitation energy         =       0.02178428 Ry
     PV energy                 =      -0.08075965 Ry
     correction to one-el term =     188.37016671 Ry

     iteration # 10     ecut=    50.00 Ry     beta= 0.70
     Davidson diagonalization with overlap
     ethr =  4.01E-06,  avg # of iterations =  1.0

     negative rho (up, down):  3.027E-05 0.000E+00

     add environment contribution to local potential
     Polarization accuracy = 8.9E-12, # of iterations =  40

     total cpu time spent up to now is     3991.6 secs

     total energy              =   -3432.81807548 Ry
     estimated scf accuracy    <       0.00590402 Ry
     electrostatic embedding   =      -0.03148175 Ry
     cavitation energy         =       0.02176492 Ry
     PV energy                 =      -0.08066848 Ry
     correction to one-el term =     188.60405583 Ry

     iteration # 11     ecut=    50.00 Ry     beta= 0.70
     Davidson diagonalization with overlap
     ethr =  1.62E-06,  avg # of iterations =  2.0

     negative rho (up, down):  1.984E-05 0.000E+00

     add environment contribution to local potential
     Polarization accuracy = 4.4E-12, # of iterations =  39

     total cpu time spent up to now is     4345.4 secs

     total energy              =   -3432.81961521 Ry
     estimated scf accuracy    <       0.00212506 Ry
     electrostatic embedding   =      -0.02949042 Ry
     cavitation energy         =       0.02153672 Ry
     PV energy                 =      -0.08072846 Ry
     correction to one-el term =     190.39044138 Ry

     iteration # 12     ecut=    50.00 Ry     beta= 0.70
     Davidson diagonalization with overlap
     ethr =  5.84E-07,  avg # of iterations =  2.0

     negative rho (up, down):  8.530E-05 0.000E+00

     add environment contribution to local potential
     Polarization accuracy = 2.2E-12, # of iterations =  40

     total cpu time spent up to now is     4640.6 secs

     total energy              =   -3432.82025162 Ry
     estimated scf accuracy    <       0.00049735 Ry
     electrostatic embedding   =      -0.02789761 Ry
     cavitation energy         =       0.02142011 Ry
     PV energy                 =      -0.08082689 Ry
     correction to one-el term =     191.46246978 Ry

     iteration # 13     ecut=    50.00 Ry     beta= 0.70
     Davidson diagonalization with overlap
     ethr =  1.37E-07,  avg # of iterations =  2.0

     negative rho (up, down):  3.595E-06 0.000E+00

     add environment contribution to local potential
     Polarization accuracy = 9.0E-12, # of iterations =  38

     total cpu time spent up to now is     4967.6 secs

     total energy              =   -3432.82062584 Ry
     estimated scf accuracy    <       0.00034141 Ry
     electrostatic embedding   =      -0.02649702 Ry
     cavitation energy         =       0.02133162 Ry
     PV energy                 =      -0.08091721 Ry
     correction to one-el term =     192.47525954 Ry

     iteration # 14     ecut=    50.00 Ry     beta= 0.70
     Davidson diagonalization with overlap
     ethr =  9.38E-08,  avg # of iterations =  2.0

     negative rho (up, down):  1.508E-08 0.000E+00

     add environment contribution to local potential
     Polarization accuracy = 3.1E-12, # of iterations =  38

     total cpu time spent up to now is     5277.8 secs

     total energy              =   -3432.82079075 Ry
     estimated scf accuracy    <       0.00021863 Ry
     electrostatic embedding   =      -0.02595299 Ry
     cavitation energy         =       0.02132484 Ry
     PV energy                 =      -0.08095164 Ry
     correction to one-el term =     192.80786368 Ry

     iteration # 15     ecut=    50.00 Ry     beta= 0.70
     Davidson diagonalization with overlap
     ethr =  6.01E-08,  avg # of iterations =  2.0

     negative rho (up, down):  5.121E-05 0.000E+00

     add environment contribution to local potential
     Polarization accuracy = 3.5E-12, # of iterations =  39

     total cpu time spent up to now is     5514.7 secs

     total energy              =   -3432.82092337 Ry
     estimated scf accuracy    <       0.00005401 Ry
     electrostatic embedding   =      -0.02478152 Ry
     cavitation energy         =       0.02131150 Ry
     PV energy                 =      -0.08104202 Ry
     correction to one-el term =     193.33733103 Ry

     iteration # 16     ecut=    50.00 Ry     beta= 0.70
     Davidson diagonalization with overlap
     ethr =  1.48E-08,  avg # of iterations =  2.0

     negative rho (up, down):  6.482E-05 0.000E+00

     add environment contribution to local potential
     Polarization accuracy = 2.8E-12, # of iterations =  38

     total cpu time spent up to now is     5814.7 secs

     total energy              =   -3432.82094232 Ry
     estimated scf accuracy    <       0.00003487 Ry
     electrostatic embedding   =      -0.02449102 Ry
     cavitation energy         =       0.02131745 Ry
     PV energy                 =      -0.08104878 Ry
     correction to one-el term =     193.57520705 Ry

     iteration # 17     ecut=    50.00 Ry     beta= 0.70
     Davidson diagonalization with overlap
     ethr =  9.58E-09,  avg # of iterations =  1.0

     negative rho (up, down):  3.571E-04 0.000E+00

     add environment contribution to local potential
     Polarization accuracy = 2.8E-12, # of iterations =  38

     total cpu time spent up to now is     6135.7 secs

     total energy              =   -3432.82094636 Ry
     estimated scf accuracy    <       0.00001197 Ry
     electrostatic embedding   =      -0.02441195 Ry
     cavitation energy         =       0.02132157 Ry
     PV energy                 =      -0.08104960 Ry
     correction to one-el term =     193.60577029 Ry

     iteration # 18     ecut=    50.00 Ry     beta= 0.70
     Davidson diagonalization with overlap
     ethr =  3.29E-09,  avg # of iterations =  2.0

     negative rho (up, down):  2.353E-04 0.000E+00

     add environment contribution to local potential
     Polarization accuracy = 2.1E-12, # of iterations =  38

     total cpu time spent up to now is     6453.8 secs

     total energy              =   -3432.82094988 Ry
     estimated scf accuracy    <       0.00000477 Ry
     electrostatic embedding   =      -0.02428566 Ry
     cavitation energy         =       0.02132452 Ry
     PV energy                 =      -0.08105436 Ry
     correction to one-el term =     193.65710805 Ry

     iteration # 19     ecut=    50.00 Ry     beta= 0.70
     Davidson diagonalization with overlap
     ethr =  1.31E-09,  avg # of iterations =  2.0

     negative rho (up, down):  1.797E-04 0.000E+00

     add environment contribution to local potential
     Polarization accuracy = 2.4E-12, # of iterations =  39

     total cpu time spent up to now is     6660.4 secs

     total energy              =   -3432.82095104 Ry
     estimated scf accuracy    <       0.00000120 Ry
     electrostatic embedding   =      -0.02432783 Ry
     cavitation energy         =       0.02132497 Ry
     PV energy                 =      -0.08104401 Ry
     correction to one-el term =     193.66415532 Ry

     iteration # 20     ecut=    50.00 Ry     beta= 0.70
     Davidson diagonalization with overlap
     ethr =  3.30E-10,  avg # of iterations =  6.0

     negative rho (up, down):  1.793E-04 0.000E+00

     add environment contribution to local potential
     Polarization accuracy = 3.6E-12, # of iterations =  38

     total cpu time spent up to now is     6975.2 secs

     total energy              =   -3432.82095170 Ry
     estimated scf accuracy    <       0.00000034 Ry
     electrostatic embedding   =      -0.02433655 Ry
     cavitation energy         =       0.02132882 Ry
     PV energy                 =      -0.08103598 Ry
     correction to one-el term =     193.66085044 Ry

     iteration # 21     ecut=    50.00 Ry     beta= 0.70
     Davidson diagonalization with overlap
     ethr =  9.46E-11,  avg # of iterations =  3.0

     negative rho (up, down):  1.570E-04 0.000E+00

     add environment contribution to local potential
     Polarization accuracy = 2.8E-12, # of iterations =  39

     total cpu time spent up to now is     7267.8 secs

     total energy              =   -3432.82095192 Ry
     estimated scf accuracy    <       0.00000015 Ry
     electrostatic embedding   =      -0.02433772 Ry
     cavitation energy         =       0.02132931 Ry
     PV energy                 =      -0.08103486 Ry
     correction to one-el term =     193.65864740 Ry

     iteration # 22     ecut=    50.00 Ry     beta= 0.70
     Davidson diagonalization with overlap
     ethr =  4.05E-11,  avg # of iterations =  2.0

     negative rho (up, down):  1.533E-04 0.000E+00

     add environment contribution to local potential
     Polarization accuracy = 3.0E-12, # of iterations =  39

     total cpu time spent up to now is     7592.3 secs

     total energy              =   -3432.82095224 Ry
     estimated scf accuracy    <       0.00000012 Ry
     electrostatic embedding   =      -0.02435033 Ry
     cavitation energy         =       0.02132960 Ry
     PV energy                 =      -0.08103275 Ry
     correction to one-el term =     193.65120261 Ry

     iteration # 23     ecut=    50.00 Ry     beta= 0.70
     Davidson diagonalization with overlap
     ethr =  3.21E-11,  avg # of iterations =  1.0

     negative rho (up, down):  1.466E-04 0.000E+00

     add environment contribution to local potential
     Polarization accuracy = 2.9E-12, # of iterations =  38

     total cpu time spent up to now is     7875.4 secs

     total energy              =   -3432.82095243 Ry
     estimated scf accuracy    <       0.00000009 Ry
     electrostatic embedding   =      -0.02435161 Ry
     cavitation energy         =       0.02132987 Ry
     PV energy                 =      -0.08103217 Ry
     correction to one-el term =     193.64974390 Ry

     iteration # 24     ecut=    50.00 Ry     beta= 0.70
     Davidson diagonalization with overlap
     ethr =  2.41E-11,  avg # of iterations =  1.0

     negative rho (up, down):  1.475E-04 0.000E+00

     add environment contribution to local potential
     Polarization accuracy = 3.6E-12, # of iterations =  39

     total cpu time spent up to now is     8147.0 secs

     total energy              =   -3432.82095268 Ry
     estimated scf accuracy    <       0.00000008 Ry
     electrostatic embedding   =      -0.02435357 Ry
     cavitation energy         =       0.02133004 Ry
     PV energy                 =      -0.08103174 Ry
     correction to one-el term =     193.64745541 Ry

     iteration # 25     ecut=    50.00 Ry     beta= 0.70
     Davidson diagonalization with overlap
     ethr =  2.26E-11,  avg # of iterations =  1.0

     negative rho (up, down):  1.426E-04 0.000E+00

     add environment contribution to local potential
     Polarization accuracy = 5.6E-12, # of iterations =  38

     total cpu time spent up to now is     8443.5 secs

     total energy              =   -3432.82095295 Ry
     estimated scf accuracy    <       0.00000008 Ry
     electrostatic embedding   =      -0.02435315 Ry
     cavitation energy         =       0.02133014 Ry
     PV energy                 =      -0.08103157 Ry
     correction to one-el term =     193.64682979 Ry

     iteration # 26     ecut=    50.00 Ry     beta= 0.70
     Davidson diagonalization with overlap
     ethr =  2.08E-11,  avg # of iterations =  1.0

     negative rho (up, down):  1.368E-04 0.000E+00

     add environment contribution to local potential
     Polarization accuracy = 3.4E-12, # of iterations =  38

     total cpu time spent up to now is     8763.8 secs

     total energy              =   -3432.82095389 Ry
     estimated scf accuracy    <       0.00000007 Ry
     electrostatic embedding   =      -0.02435314 Ry
     cavitation energy         =       0.02133027 Ry
     PV energy                 =      -0.08103141 Ry
     correction to one-el term =     193.64513754 Ry

     iteration # 27     ecut=    50.00 Ry     beta= 0.70
     Davidson diagonalization with overlap
     ethr =  1.93E-11,  avg # of iterations =  2.0

     negative rho (up, down):  1.366E-04 0.000E+00

     add environment contribution to local potential
     Polarization accuracy = 4.0E-12, # of iterations =  38

     total cpu time spent up to now is     9074.6 secs

     total energy              =   -3432.82095597 Ry
     estimated scf accuracy    <       0.00000007 Ry
     electrostatic embedding   =      -0.02435355 Ry
     cavitation energy         =       0.02133052 Ry
     PV energy                 =      -0.08103088 Ry
     correction to one-el term =     193.64282581 Ry

     iteration # 28     ecut=    50.00 Ry     beta= 0.70
     Davidson diagonalization with overlap
     ethr =  1.82E-11,  avg # of iterations =  2.0

     negative rho (up, down):  1.302E-04 0.000E+00

     add environment contribution to local potential
     Polarization accuracy = 3.3E-12, # of iterations =  39

     total cpu time spent up to now is     9373.0 secs

     total energy              =   -3432.82095789 Ry
     estimated scf accuracy    <       0.00000006 Ry
     electrostatic embedding   =      -0.02435189 Ry
     cavitation energy         =       0.02133031 Ry
     PV energy                 =      -0.08103147 Ry
     correction to one-el term =     193.64377233 Ry

     iteration # 29     ecut=    50.00 Ry     beta= 0.70
     Davidson diagonalization with overlap
     ethr =  1.52E-11,  avg # of iterations =  6.0

     negative rho (up, down):  1.351E-04 0.000E+00

     add environment contribution to local potential
     Polarization accuracy = 9.6E-12, # of iterations =  37

     total cpu time spent up to now is     9706.1 secs

     total energy              =   -3432.82096834 Ry
     estimated scf accuracy    <       0.00000003 Ry
     electrostatic embedding   =      -0.02434888 Ry
     cavitation energy         =       0.02133037 Ry
     PV energy                 =      -0.08103163 Ry
     correction to one-el term =     193.64265480 Ry

     iteration # 30     ecut=    50.00 Ry     beta= 0.70
     Davidson diagonalization with overlap
     ethr =  6.89E-12,  avg # of iterations =  3.0

     negative rho (up, down):  1.406E-04 0.000E+00

     add environment contribution to local potential
     Polarization accuracy = 6.4E-12, # of iterations =  37

     total cpu time spent up to now is    10031.4 secs

     total energy              =   -3432.82097267 Ry
     estimated scf accuracy    <       0.00000001 Ry
     electrostatic embedding   =      -0.02434858 Ry
     cavitation energy         =       0.02133014 Ry
     PV energy                 =      -0.08103198 Ry
     correction to one-el term =     193.64494701 Ry

     iteration # 31     ecut=    50.00 Ry     beta= 0.70
     Davidson diagonalization with overlap
     ethr =  3.02E-12,  avg # of iterations =  6.0

     negative rho (up, down):  1.416E-04 0.000E+00

     add environment contribution to local potential
     Polarization accuracy = 6.9E-12, # of iterations =  37

     total cpu time spent up to now is    10310.3 secs

     total energy              =   -3432.82097580 Ry
     estimated scf accuracy    <          8.5E-09 Ry
     electrostatic embedding   =      -0.02434867 Ry
     cavitation energy         =       0.02133002 Ry
     PV energy                 =      -0.08103217 Ry
     correction to one-el term =     193.64677884 Ry

     iteration # 32     ecut=    50.00 Ry     beta= 0.70
     Davidson diagonalization with overlap
     ethr =  2.34E-12,  avg # of iterations =  2.0

     negative rho (up, down):  1.467E-04 0.000E+00

     add environment contribution to local potential
     Polarization accuracy = 5.5E-12, # of iterations =  37

     total cpu time spent up to now is    10603.4 secs

     total energy              =   -3432.82097716 Ry
     estimated scf accuracy    <          1.9E-09 Ry
     electrostatic embedding   =      -0.02434918 Ry
     cavitation energy         =       0.02133005 Ry
     PV energy                 =      -0.08103209 Ry
     correction to one-el term =     193.64681176 Ry

     iteration # 33     ecut=    50.00 Ry     beta= 0.70
     Davidson diagonalization with overlap
     ethr =  5.17E-13,  avg # of iterations =  2.0

     negative rho (up, down):  1.469E-04 0.000E+00

     add environment contribution to local potential
     Polarization accuracy = 5.5E-12, # of iterations =  37

     total cpu time spent up to now is    10897.6 secs

     total energy              =   -3432.82097761 Ry
     estimated scf accuracy    <          1.2E-09 Ry
     electrostatic embedding   =      -0.02435032 Ry
     cavitation energy         =       0.02133003 Ry
     PV energy                 =      -0.08103204 Ry
     correction to one-el term =     193.64784845 Ry

     iteration # 34     ecut=    50.00 Ry     beta= 0.70
     Davidson diagonalization with overlap
     ethr =  3.32E-13,  avg # of iterations =  2.0

     negative rho (up, down):  1.493E-04 0.000E+00

     the potential shift due to the Gaussian-smeared nuclei is    -1.3065 ev

     total cpu time spent up to now is    11224.7 secs

     End of self-consistent calculation

          k = 0.2500 0.2573 0.0000 ( 35510 PWs)   bands (ev):

   -78.6043 -78.5990 -78.5913 -78.5860 -78.1874 -78.1824 -78.1742 -78.1692
   -78.0111 -78.0061 -77.9205 -77.9156 -48.6856 -48.6842 -48.6791 -48.6726
   -48.6713 -48.6661 -48.5795 -48.5666 -48.5098 -48.5035 -48.4966 -48.4904
   -48.4802 -48.4670 -48.4633 -48.4503 -48.3153 -48.3110 -48.2032 -48.1975
   -48.0912 -48.0780 -48.0003 -47.9932 -47.9871 -47.9847 -47.9801 -47.9716
   -47.9671 -47.8721 -47.8685 -47.7983 -47.7928 -47.7813 -47.7772 -47.7718
   -24.3927 -24.1537 -23.9693 -23.8908 -23.7824 -23.6719 -23.6009 -23.5823
   -23.5608 -23.5015 -23.4907 -23.4145 -23.3602 -23.3290 -23.1680 -23.1390
   -23.1232 -23.1128 -23.0964 -23.0125 -22.9993 -22.9963 -22.9274 -22.9149
   -22.8414 -22.8079 -22.6376 -22.4566 -12.4274 -12.3522 -12.3046 -12.2468
   -12.0834 -12.0462 -11.9185 -11.8221 -11.7749 -11.7630 -11.6088 -11.5996
   -11.5659 -11.4433 -11.4338 -11.4051 -11.3732 -11.3485 -11.2566 -11.2450
   -11.1463 -11.1059 -11.0448 -10.8922 -10.8576 -10.8259 -10.7215 -10.4719
   -10.4519 -10.2912 -10.2871 -10.2761 -10.0866  -9.9586  -9.8305  -9.7749
    -9.6383  -9.6084  -9.4635  -9.4000  -9.3709  -9.3159  -9.3063  -9.2398
    -9.1280  -9.0579  -8.9414  -8.9145  -8.8567  -8.8437  -8.7985  -8.7007
    -8.6952  -8.5961  -8.5775  -8.5238  -8.4815  -8.4449  -8.3926  -8.3406
    -8.1976  -8.1971  -7.9763  -7.9499  -7.8701  -7.8574  -7.7620  -7.7514
    -7.7253  -7.5887  -7.4393  -7.4089  -7.3390  -7.2440  -7.1823  -7.1169
    -7.0754  -7.0412  -6.9885  -6.9839  -6.8641  -6.7505  -6.4609  -6.4474
    -5.6728  -5.5830  -5.5623  -5.5300  -5.5128  -5.4090  -5.3511  -5.2850
    -5.2383  -5.2118  -5.2104  -5.2008  -5.2000  -5.1388  -5.0667  -5.0205
    -4.9810  -4.9612  -4.8943  -4.7735  -4.7613  -4.6847  -4.4897  -4.3454
    -4.3333  -4.3253  -4.0863  -4.0272  -3.9779  -3.8303  -3.8089  -3.7718
    -3.7113  -3.7001  -3.5537  -3.3267  -2.8285  -2.2991  -2.2308  -2.1989
    -2.1681  -2.0365  -1.8090  -1.2647  -1.0276  -0.9046  -0.7612  -0.6950
    -0.6763  -0.5972  -0.5544  -0.4785  -0.3812  -0.2610  -0.2495  -0.0471
     0.1654   0.1828

     the Fermi energy is    -4.6185 ev

!    total energy              =   -3432.82097786 Ry
     estimated scf accuracy    <          4.0E-10 Ry
     smearing contrib. (-TS)   =       0.07105173 Ry
     internal energy E=F+TS    =   -3432.89202959 Ry

     The total energy is F=E-TS. E is the sum of the following terms:
     one-electron contribution =  -25200.10880884 Ry
     hartree contribution      =   12575.25765443 Ry
     xc contribution           =    -445.93994004 Ry
     ewald contribution        =    9710.89371616 Ry
     one-center paw contrib.   =    -266.55827683 Ry
     electrostatic embedding   =      -0.02435079 Ry
     cavitation energy         =       0.02133006 Ry
     PV energy                 =      -0.08103195 Ry
     correction to one-el term =     193.64767820 Ry

     WARNING: you are using the parabolic pbc correction;
              the potential shift above must be added to 
              band and Fermi energies.

     convergence has been achieved in  34 iterations

     negative rho (up, down):  1.493E-04 0.000E+00

     Forces acting on atoms (cartesian axes, Ry/au):

     atom    1 type  1   force =     0.00474368    0.00000000   -0.00799461
     atom    2 type  1   force =     0.00474133    0.00000000   -0.00799564
     atom    3 type  1   force =     0.00004135    0.00000000   -0.00595558
     atom    4 type  1   force =     0.00004144    0.00000000   -0.00595482
     atom    5 type  2   force =     0.00011124    0.00000000   -0.00050053
     atom    6 type  2   force =     0.00011096    0.00000000   -0.00050070
     atom    7 type  1   force =    -0.00062956    0.01506788    0.00105988
     atom    8 type  1   force =    -0.00062819    0.01506830    0.00105990
     atom    9 type  2   force =     0.00450492    0.00000000    0.00176867
     atom   10 type  2   force =     0.00450477    0.00000000    0.00176808
     atom   11 type  1   force =    -0.00062956   -0.01506788    0.00105988
     atom   12 type  1   force =    -0.00062819   -0.01506830    0.00105990
     atom   13 type  1   force =    -0.00000046    0.00000000   -0.00174483
     atom   14 type  1   force =    -0.00000043    0.00000000   -0.00174468
     atom   15 type  1   force =    -0.00341382    0.00000000    0.00356991
     atom   16 type  1   force =    -0.00341344    0.00000000    0.00357166
     atom   17 type  2   force =     0.00104395    0.00000000    0.00000000
     atom   18 type  2   force =     0.00104651    0.00000000    0.00000000
     atom   19 type  1   force =    -0.00065149   -0.02287098    0.00000000
     atom   20 type  1   force =    -0.00065086   -0.02286797    0.00000000
     atom   21 type  2   force =     0.00337269    0.00000000    0.00000000
     atom   22 type  2   force =     0.00337350    0.00000000    0.00000000
     atom   23 type  1   force =    -0.00065149    0.02287098    0.00000000
     atom   24 type  1   force =    -0.00065086    0.02286797    0.00000000
     atom   25 type  1   force =    -0.00341382    0.00000000   -0.00356991
     atom   26 type  1   force =    -0.00341344    0.00000000   -0.00357166
     atom   27 type  1   force =    -0.00000046    0.00000000    0.00174483
     atom   28 type  1   force =    -0.00000043    0.00000000    0.00174468
     atom   29 type  2   force =     0.00011124    0.00000000    0.00050053
     atom   30 type  2   force =     0.00011096    0.00000000    0.00050070
     atom   31 type  1   force =    -0.00062956    0.01506788   -0.00105988
     atom   32 type  1   force =    -0.00062819    0.01506830   -0.00105990
     atom   33 type  2   force =     0.00450492    0.00000000   -0.00176867
     atom   34 type  2   force =     0.00450477    0.00000000   -0.00176808
     atom   35 type  1   force =    -0.00062956   -0.01506788   -0.00105988
     atom   36 type  1   force =    -0.00062819   -0.01506830   -0.00105990
     atom   37 type  1   force =     0.00004135    0.00000000    0.00595558
     atom   38 type  1   force =     0.00004144    0.00000000    0.00595482
     atom   39 type  1   force =     0.00474368    0.00000000    0.00799461
     atom   40 type  1   force =     0.00474133    0.00000000    0.00799564
     atom   41 type  3   force =    -0.00628662    0.00000000    0.00258558
     atom   42 type  3   force =    -0.00628662    0.00000000   -0.00258558
     atom   43 type  3   force =    -0.00628541    0.00000000    0.00258466
     atom   44 type  3   force =    -0.00628541    0.00000000   -0.00258466
     The non-local contrib.  to forces
     atom    1 type  1   force =     1.72419019    0.00000000    0.31750970
     atom    2 type  1   force =     1.72418791    0.00000000    0.31751229
     atom    3 type  1   force =     0.00536767    0.00000000    1.08060085
     atom    4 type  1   force =     0.00536759    0.00000000    1.08060012
     atom    5 type  2   force =     0.00088354    0.00000000   -0.05991455
     atom    6 type  2   force =     0.00088268    0.00000000   -0.05991373
     atom    7 type  1   force =     0.00561858   -0.01461150    0.01072968
     atom    8 type  1   force =     0.00561804   -0.01460917    0.01073146
     atom    9 type  2   force =     0.00578633    0.00000000    0.02171158
     atom   10 type  2   force =     0.00578521    0.00000000    0.02170864
     atom   11 type  1   force =     0.00561858    0.01461150    0.01072968
     atom   12 type  1   force =     0.00561804    0.01460917    0.01073146
     atom   13 type  1   force =     0.01293117    0.00000000    0.04240258
     atom   14 type  1   force =     0.01292706    0.00000000    0.04240317
     atom   15 type  1   force =     0.00918355    0.00000000    0.03077967
     atom   16 type  1   force =     0.00919164    0.00000000    0.03079601
     atom   17 type  2   force =     0.00049783    0.00000000    0.00000000
     atom   18 type  2   force =     0.00049828    0.00000000    0.00000000
     atom   19 type  1   force =     0.01042910   -0.01726777    0.00000000
     atom   20 type  1   force =     0.01041898   -0.01726175    0.00000000
     atom   21 type  2   force =     0.03533221    0.00000000    0.00000000
     atom   22 type  2   force =     0.03533722    0.00000000    0.00000000
     atom   23 type  1   force =     0.01042910    0.01726777    0.00000000
     atom   24 type  1   force =     0.01041898    0.01726175    0.00000000
     atom   25 type  1   force =     0.00918355    0.00000000   -0.03077967
     atom   26 type  1   force =     0.00919164    0.00000000   -0.03079601
     atom   27 type  1   force =     0.01293117    0.00000000   -0.04240258
     atom   28 type  1   force =     0.01292706    0.00000000   -0.04240317
     atom   29 type  2   force =     0.00088354    0.00000000    0.05991455
     atom   30 type  2   force =     0.00088268    0.00000000    0.05991373
     atom   31 type  1   force =     0.00561858   -0.01461150   -0.01072968
     atom   32 type  1   force =     0.00561804   -0.01460917   -0.01073146
     atom   33 type  2   force =     0.00578633    0.00000000   -0.02171158
     atom   34 type  2   force =     0.00578521    0.00000000   -0.02170864
     atom   35 type  1   force =     0.00561858    0.01461150   -0.01072968
     atom   36 type  1   force =     0.00561804    0.01460917   -0.01073146
     atom   37 type  1   force =     0.00536767    0.00000000   -1.08060085
     atom   38 type  1   force =     0.00536759    0.00000000   -1.08060012
     atom   39 type  1   force =     1.72419019    0.00000000   -0.31750970
     atom   40 type  1   force =     1.72418791    0.00000000   -0.31751229
     atom   41 type  3   force =    -0.09501420    0.00000000    0.04745150
     atom   42 type  3   force =    -0.09501420    0.00000000   -0.04745150
     atom   43 type  3   force =    -0.09501459    0.00000000    0.04745148
     atom   44 type  3   force =    -0.09501459    0.00000000   -0.04745148
     The ionic contribution  to forces
     atom    1 type  1   force =    -2.76079871    0.00000017  -94.94580475
     atom    2 type  1   force =    -2.76082353    0.00000017  -94.94583037
     atom    3 type  1   force =    -0.03322145   -0.00000035  -93.35750495
     atom    4 type  1   force =    -0.03321828   -0.00000035  -93.35749789
     atom    5 type  2   force =     0.12939293   -0.00000233 -172.78541209
     atom    6 type  2   force =     0.12942838   -0.00000233 -172.78532093
     atom    7 type  1   force =    -0.06488543   -1.61517942  -62.83296091
     atom    8 type  1   force =    -0.06485252   -1.61518731  -62.83296961
     atom    9 type  2   force =    -0.02228464    0.00000346 -167.22850008
     atom   10 type  2   force =    -0.02233809    0.00000346 -167.22926908
     atom   11 type  1   force =    -0.06488542    1.61517996  -62.83295832
     atom   12 type  1   force =    -0.06485252    1.61518785  -62.83296702
     atom   13 type  1   force =    -0.09889613   -0.00000159  -37.60021039
     atom   14 type  1   force =    -0.09885507   -0.00000159  -37.60022931
     atom   15 type  1   force =    -0.27130973    0.00001014  -25.48044276
     atom   16 type  1   force =    -0.27127649    0.00001014  -25.48067067
     atom   17 type  2   force =     0.11434561    0.00001938   -0.00044190
     atom   18 type  2   force =     0.11441728    0.00001938   -0.00044190
     atom   19 type  1   force =    -0.02014796    0.59326299   -0.00007409
     atom   20 type  1   force =    -0.02003169    0.59335305   -0.00007409
     atom   21 type  2   force =     0.82491165    0.00011239   -0.00026181
     atom   22 type  2   force =     0.82493696    0.00011239   -0.00026181
     atom   23 type  1   force =    -0.02014870   -0.59341487   -0.00007409
     atom   24 type  1   force =    -0.02003243   -0.59350493   -0.00007409
     atom   25 type  1   force =    -0.27132782    0.00001014   25.48026120
     atom   26 type  1   force =    -0.27129459    0.00001014   25.48048912
     atom   27 type  1   force =    -0.09889755   -0.00000159   37.60053147
     atom   28 type  1   force =    -0.09885649   -0.00000159   37.60055038
     atom   29 type  2   force =     0.12939250   -0.00000233  172.78562548
     atom   30 type  2   force =     0.12942795   -0.00000233  172.78553433
     atom   31 type  1   force =    -0.06488465   -1.61521364   62.83301693
     atom   32 type  1   force =    -0.06485175   -1.61522153   62.83302564
     atom   33 type  2   force =    -0.02228961    0.00000346  167.22861874
     atom   34 type  2   force =    -0.02234307    0.00000346  167.22938774
     atom   35 type  1   force =    -0.06488465    1.61521418   62.83301435
     atom   36 type  1   force =    -0.06485174    1.61522207   62.83302305
     atom   37 type  1   force =    -0.03322057   -0.00000035   93.35764998
     atom   38 type  1   force =    -0.03321739   -0.00000035   93.35764293
     atom   39 type  1   force =    -2.76088507    0.00000017   94.94590441
     atom   40 type  1   force =    -2.76090989    0.00000017   94.94593003
     atom   41 type  3   force =     2.73727658    0.00000002  -16.32540623
     atom   42 type  3   force =     2.73736698    0.00000002   16.32542981
     atom   43 type  3   force =     2.73729322    0.00000002  -16.32540264
     atom   44 type  3   force =     2.73738362    0.00000002   16.32542622
     The local contribution  to forces
     atom    1 type  1   force =     1.03380248   -0.00000000   94.64353054
     atom    2 type  1   force =     1.03382716    0.00000000   94.64356182
     atom    3 type  1   force =     0.02574815   -0.00000000   92.24970592
     atom    4 type  1   force =     0.02574408    0.00000000   92.24970253
     atom    5 type  2   force =    -0.12896773    0.00000000  172.82889018
     atom    6 type  2   force =    -0.12900476   -0.00000000  172.82879631
     atom    7 type  1   force =     0.05950824    1.63913254   62.82587582
     atom    8 type  1   force =     0.05946046    1.63913874   62.82588169
     atom    9 type  2   force =     0.01874149   -0.00000000  167.22025857
     atom   10 type  2   force =     0.01879297    0.00000000  167.22102756
     atom   11 type  1   force =     0.05950824   -1.63913254   62.82587582
     atom   12 type  1   force =     0.05946046   -1.63913874   62.82588169
     atom   13 type  1   force =     0.08604167    0.00000000   37.55369658
     atom   14 type  1   force =     0.08600258   -0.00000000   37.55371231
     atom   15 type  1   force =     0.25874765    0.00000000   25.45387828
     atom   16 type  1   force =     0.25869820   -0.00000000   25.45408164
     atom   17 type  2   force =    -0.11380351    0.00000000   -0.00583762
     atom   18 type  2   force =    -0.11387921    0.00000000   -0.00583762
     atom   19 type  1   force =     0.00918130   -0.60022961   -0.00243984
     atom   20 type  1   force =     0.00907770   -0.60032684   -0.00243984
     atom   21 type  2   force =    -0.85685934   -0.00000000   -0.00598973
     atom   22 type  2   force =    -0.85689534   -0.00000000   -0.00598973
     atom   23 type  1   force =     0.00918193    0.59986707   -0.00243984
     atom   24 type  1   force =     0.00907833    0.59996431   -0.00243984
     atom   25 type  1   force =     0.25872144    0.00000000  -25.45561175
     atom   26 type  1   force =     0.25867200    0.00000000  -25.45581510
     atom   27 type  1   force =     0.08604283   -0.00000000  -37.55542819
     atom   28 type  1   force =     0.08600374   -0.00000000  -37.55544391
     atom   29 type  2   force =    -0.12896574    0.00000000 -172.83497083
     atom   30 type  2   force =    -0.12900277   -0.00000000 -172.83487697
     atom   31 type  1   force =     0.05951035    1.63911879  -62.82831274
     atom   32 type  1   force =     0.05946257    1.63912499  -62.82831861
     atom   33 type  2   force =     0.01872777   -0.00000000 -167.22604797
     atom   34 type  2   force =     0.01877926    0.00000000 -167.22681696
     atom   35 type  1   force =     0.05951035   -1.63911879  -62.82831274
     atom   36 type  1   force =     0.05946257   -1.63912499  -62.82831861
     atom   37 type  1   force =     0.02574632   -0.00000000  -92.25361835
     atom   38 type  1   force =     0.02574226    0.00000000  -92.25361496
     atom   39 type  1   force =     1.03383136    0.00000000  -94.64506798
     atom   40 type  1   force =     1.03385603   -0.00000000  -94.64509926
     atom   41 type  3   force =    -2.65858567    0.00000000   16.29972874
     atom   42 type  3   force =    -2.65858567    0.00000000  -16.29972874
     atom   43 type  3   force =    -2.65860220    0.00000000   16.29972535
     atom   44 type  3   force =    -2.65860220    0.00000000  -16.29972535
     The core correction contribution to forces
     atom    1 type  1   force =    -0.01742806   -0.00000000   -0.00320682
     atom    2 type  1   force =    -0.01742801    0.00000000   -0.00320685
     atom    3 type  1   force =    -0.00005692   -0.00000000   -0.01074857
     atom    4 type  1   force =    -0.00005692   -0.00000000   -0.01074856
     atom    5 type  2   force =     0.00000000    0.00000000    0.00000000
     atom    6 type  2   force =     0.00000000    0.00000000    0.00000000
     atom    7 type  1   force =    -0.00001868   -0.00000266   -0.00017921
     atom    8 type  1   force =    -0.00001865   -0.00000269   -0.00017923
     atom    9 type  2   force =     0.00000000    0.00000000    0.00000000
     atom   10 type  2   force =     0.00000000    0.00000000    0.00000000
     atom   11 type  1   force =    -0.00001868    0.00000266   -0.00017921
     atom   12 type  1   force =    -0.00001865    0.00000269   -0.00017923
     atom   13 type  1   force =    -0.00012362   -0.00000000   -0.00029744
     atom   14 type  1   force =    -0.00012358   -0.00000000   -0.00029744
     atom   15 type  1   force =    -0.00003097    0.00000000   -0.00079265
     atom   16 type  1   force =    -0.00003107    0.00000000   -0.00079290
     atom   17 type  2   force =     0.00000000    0.00000000    0.00000000
     atom   18 type  2   force =     0.00000000    0.00000000    0.00000000
     atom   19 type  1   force =    -0.00011214    0.00061343   -0.00000205
     atom   20 type  1   force =    -0.00011205    0.00061331   -0.00000205
     atom   21 type  2   force =     0.00000000    0.00000000    0.00000000
     atom   22 type  2   force =     0.00000000    0.00000000    0.00000000
     atom   23 type  1   force =    -0.00011214   -0.00061402   -0.00000205
     atom   24 type  1   force =    -0.00011206   -0.00061390   -0.00000205
     atom   25 type  1   force =    -0.00003103    0.00000000    0.00079056
     atom   26 type  1   force =    -0.00003112    0.00000000    0.00079080
     atom   27 type  1   force =    -0.00012362    0.00000000    0.00029510
     atom   28 type  1   force =    -0.00012358   -0.00000000    0.00029510
     atom   29 type  2   force =     0.00000000    0.00000000    0.00000000
     atom   30 type  2   force =     0.00000000    0.00000000    0.00000000
     atom   31 type  1   force =    -0.00001865   -0.00000275    0.00017739
     atom   32 type  1   force =    -0.00001862   -0.00000278    0.00017741
     atom   33 type  2   force =     0.00000000    0.00000000    0.00000000
     atom   34 type  2   force =     0.00000000    0.00000000    0.00000000
     atom   35 type  1   force =    -0.00001865    0.00000275    0.00017739
     atom   36 type  1   force =    -0.00001862    0.00000278    0.00017741
     atom   37 type  1   force =    -0.00005690    0.00000000    0.01074389
     atom   38 type  1   force =    -0.00005691    0.00000000    0.01074388
     atom   39 type  1   force =    -0.01742885    0.00000000    0.00320448
     atom   40 type  1   force =    -0.01742880    0.00000000    0.00320450
     atom   41 type  3   force =     0.00000000    0.00000000    0.00000000
     atom   42 type  3   force =     0.00000000    0.00000000    0.00000000
     atom   43 type  3   force =     0.00000000    0.00000000    0.00000000
     atom   44 type  3   force =     0.00000000    0.00000000    0.00000000
     The Hubbard contrib.    to forces
     atom    1 type  1   force =     0.00000000    0.00000000    0.00000000
     atom    2 type  1   force =     0.00000000    0.00000000    0.00000000
     atom    3 type  1   force =     0.00000000    0.00000000    0.00000000
     atom    4 type  1   force =     0.00000000    0.00000000    0.00000000
     atom    5 type  2   force =     0.00000000    0.00000000    0.00000000
     atom    6 type  2   force =     0.00000000    0.00000000    0.00000000
     atom    7 type  1   force =     0.00000000    0.00000000    0.00000000
     atom    8 type  1   force =     0.00000000    0.00000000    0.00000000
     atom    9 type  2   force =     0.00000000    0.00000000    0.00000000
     atom   10 type  2   force =     0.00000000    0.00000000    0.00000000
     atom   11 type  1   force =     0.00000000    0.00000000    0.00000000
     atom   12 type  1   force =     0.00000000    0.00000000    0.00000000
     atom   13 type  1   force =     0.00000000    0.00000000    0.00000000
     atom   14 type  1   force =     0.00000000    0.00000000    0.00000000
     atom   15 type  1   force =     0.00000000    0.00000000    0.00000000
     atom   16 type  1   force =     0.00000000    0.00000000    0.00000000
     atom   17 type  2   force =     0.00000000    0.00000000    0.00000000
     atom   18 type  2   force =     0.00000000    0.00000000    0.00000000
     atom   19 type  1   force =     0.00000000    0.00000000    0.00000000
     atom   20 type  1   force =     0.00000000    0.00000000    0.00000000
     atom   21 type  2   force =     0.00000000    0.00000000    0.00000000
     atom   22 type  2   force =     0.00000000    0.00000000    0.00000000
     atom   23 type  1   force =     0.00000000    0.00000000    0.00000000
     atom   24 type  1   force =     0.00000000    0.00000000    0.00000000
     atom   25 type  1   force =     0.00000000    0.00000000    0.00000000
     atom   26 type  1   force =     0.00000000    0.00000000    0.00000000
     atom   27 type  1   force =     0.00000000    0.00000000    0.00000000
     atom   28 type  1   force =     0.00000000    0.00000000    0.00000000
     atom   29 type  2   force =     0.00000000    0.00000000    0.00000000
     atom   30 type  2   force =     0.00000000    0.00000000    0.00000000
     atom   31 type  1   force =     0.00000000    0.00000000    0.00000000
     atom   32 type  1   force =     0.00000000    0.00000000    0.00000000
     atom   33 type  2   force =     0.00000000    0.00000000    0.00000000
     atom   34 type  2   force =     0.00000000    0.00000000    0.00000000
     atom   35 type  1   force =     0.00000000    0.00000000    0.00000000
     atom   36 type  1   force =     0.00000000    0.00000000    0.00000000
     atom   37 type  1   force =     0.00000000    0.00000000    0.00000000
     atom   38 type  1   force =     0.00000000    0.00000000    0.00000000
     atom   39 type  1   force =     0.00000000    0.00000000    0.00000000
     atom   40 type  1   force =     0.00000000    0.00000000    0.00000000
     atom   41 type  3   force =     0.00000000    0.00000000    0.00000000
     atom   42 type  3   force =     0.00000000    0.00000000    0.00000000
     atom   43 type  3   force =     0.00000000    0.00000000    0.00000000
     atom   44 type  3   force =     0.00000000    0.00000000    0.00000000
     The SCF correction term to forces
     atom    1 type  1   force =    -0.00000016   -0.00000002   -0.00001096
     atom    2 type  1   force =    -0.00000151   -0.00000002   -0.00002014
     atom    3 type  1   force =    -0.00000020    0.00000005   -0.00001279
     atom    4 type  1   force =     0.00000070    0.00000005   -0.00001487
     atom    5 type  2   force =    -0.00000118    0.00000032   -0.00002379
     atom    6 type  2   force =     0.00000116    0.00000032   -0.00002190
     atom    7 type  1   force =    -0.00000843   -0.00000358   -0.00000732
     atom    8 type  1   force =     0.00000840   -0.00000381   -0.00000612
     atom    9 type  2   force =    -0.00000157   -0.00000033   -0.00002294
     atom   10 type  2   force =     0.00000098   -0.00000033   -0.00002030
     atom   11 type  1   force =    -0.00000843    0.00000348   -0.00000747
     atom   12 type  1   force =     0.00000840    0.00000372   -0.00000627
     atom   13 type  1   force =    -0.00000110    0.00000025   -0.00000508
     atom   14 type  1   force =     0.00000101    0.00000025   -0.00000230
     atom   15 type  1   force =    -0.00000450   -0.00000032    0.00000093
     atom   16 type  1   force =     0.00000407   -0.00000032    0.00001116
     atom   17 type  2   force =    -0.00000308    0.00000120    0.00002539
     atom   18 type  2   force =     0.00000304    0.00000120    0.00002539
     atom   19 type  1   force =     0.00000106    0.00000038    0.00000905
     atom   20 type  1   force =    -0.00000094    0.00000466    0.00000905
     atom   21 type  2   force =    -0.00000248   -0.00000117    0.00002717
     atom   22 type  2   force =     0.00000402   -0.00000117    0.00002717
     atom   23 type  1   force =     0.00000106   -0.00000008    0.00000905
     atom   24 type  1   force =    -0.00000094   -0.00000437    0.00000905
     atom   25 type  1   force =    -0.00000447   -0.00000032    0.00000663
     atom   26 type  1   force =     0.00000410   -0.00000032   -0.00000360
     atom   27 type  1   force =    -0.00000109    0.00000025    0.00000317
     atom   28 type  1   force =     0.00000101    0.00000025    0.00000040
     atom   29 type  2   force =    -0.00000121    0.00000032    0.00000128
     atom   30 type  2   force =     0.00000114    0.00000032   -0.00000061
     atom   31 type  1   force =    -0.00000847   -0.00000459   -0.00000155
     atom   32 type  1   force =     0.00000837   -0.00000483   -0.00000275
     atom   33 type  2   force =    -0.00000142   -0.00000033   -0.00000433
     atom   34 type  2   force =     0.00000113   -0.00000033   -0.00000697
     atom   35 type  1   force =    -0.00000847    0.00000450   -0.00000140
     atom   36 type  1   force =     0.00000837    0.00000474   -0.00000260
     atom   37 type  1   force =    -0.00000020    0.00000005    0.00000932
     atom   38 type  1   force =     0.00000070    0.00000005    0.00001139
     atom   39 type  1   force =    -0.00000013   -0.00000002    0.00001260
     atom   40 type  1   force =    -0.00000148   -0.00000002    0.00002178
     atom   41 type  3   force =    -0.00000044   -0.00000000   -0.00000190
     atom   42 type  3   force =    -0.00000044   -0.00000000    0.00000199
     atom   43 type  3   force =     0.00000070   -0.00000000   -0.00000268
     atom   44 type  3   force =     0.00000070   -0.00000000    0.00000277

     Total force =     0.069455     Total SCF correction =     0.000091

     BFGS Geometry Optimization
     Energy error            =      0.0E+00 Ry
     Gradient error          =      2.3E-02 Ry/Bohr

     number of scf cycles    =   1
     number of bfgs steps    =   0

     energy             new  =   -3432.8209778644 Ry

     new trust radius        =       0.0228802612 bohr
     new conv_thr            =       0.0000000010 Ry


ATOMIC_POSITIONS (crystal)
O            -0.0090214694        0.5000000000        0.2710400639
O             0.4909784449        0.5000000000        0.2710396622
O            -0.0013586332        0.0000000000        0.3072054667
O             0.4986414151        0.0000000000        0.3072054986
Ru            0.2484690260        0.0000000000        0.3542893651
Ru            0.7484690368        0.0000000000        0.3542893903
O             0.2474530228        0.3102072831        0.3575668171
O             0.7474531901        0.3102071893        0.3575667967
Ru           -0.0029740595        0.5000000000        0.3575433784
Ru            0.4970261432        0.5000000000        0.3575429076
O             0.2474530228        0.6897927169        0.3575668171
O             0.7474531901        0.6897928107        0.3575667967
O            -0.0007368715        0.0000000000        0.4123656281
O             0.4992627871        0.0000000000        0.4123656339
O             0.0061274862        0.5000000000        0.4446197243
O             0.5061275891        0.5000000000        0.4446189168
Ru            0.0008873635        0.0000000000        0.5000010000
Ru            0.5008869061        0.0000000000        0.5000010000
O             0.2511446942        0.1916691188        0.5000010000
O             0.7511443053        0.1916684496        0.5000010000
Ru            0.2520287940        0.5000000000        0.5000010000
Ru            0.7520267668        0.5000000000        0.5000010000
O             0.2511446942        0.8083318812        0.5000010000
O             0.7511443053        0.8083325504        0.5000010000
O             0.0061274862        0.5000000000        0.5553812757
O             0.5061275891        0.5000000000        0.5553820832
O            -0.0007368715        0.0000000000        0.5876353719
O             0.4992627871        0.0000000000        0.5876353661
Ru            0.2484690260        0.0000000000        0.6457116349
Ru            0.7484690368        0.0000000000        0.6457116097
O             0.2474530228        0.3102072831        0.6424341829
O             0.7474531901        0.3102071893        0.6424342033
Ru           -0.0029740595        0.5000000000        0.6424576216
Ru            0.4970261432        0.5000000000        0.6424580924
O             0.2474530228        0.6897927169        0.6424341829
O             0.7474531901        0.6897928107        0.6424342033
O            -0.0013586332        0.0000000000        0.6927965333
O             0.4986414151        0.0000000000        0.6927965014
O            -0.0090214694        0.5000000000        0.7289609361
O             0.4909784449        0.5000000000        0.7289613378
H             0.1296212931        0.5000000000        0.2525307153
H             0.1296212931        0.5000000000        0.7474692847
H             0.6296214716        0.5000000000        0.2525304013
H             0.6296214716        0.5000000000        0.7474695987



     Writing config-only to output data dir /storage/home/mgm6007/ixd4/Maria/Strain0_Files/RuO2-110-0-01/RuO2-110-0-01.save/
     NEW-OLD atomic charge density approx. for the potential

     Check: negative core charge=   -0.000001

     negative rho (up, down):  1.480E-04 0.000E+00

     add environment contribution to local potential
     Polarization accuracy = 5.8E-12, # of iterations =  37

     total cpu time spent up to now is    11529.3 secs

     per-process dynamical memory:   211.1 Mb

     Self-consistent Calculation

     iteration #  1     ecut=    50.00 Ry     beta= 0.70
     Davidson diagonalization with overlap
     ethr =  1.00E-06,  avg # of iterations =  4.0

     negative rho (up, down):  3.462E-04 0.000E+00

     add environment contribution to local potential
     Polarization accuracy = 7.4E-12, # of iterations =  37

     total cpu time spent up to now is    11885.3 secs

     total energy              =   -3432.82370930 Ry
     estimated scf accuracy    <       0.00375607 Ry
     electrostatic embedding   =      -0.02445703 Ry
     cavitation energy         =       0.02134960 Ry
     PV energy                 =      -0.08104331 Ry
     correction to one-el term =     193.59604681 Ry

     iteration #  2     ecut=    50.00 Ry     beta= 0.70
     Davidson diagonalization with overlap
     ethr =  1.03E-06,  avg # of iterations =  2.0

     negative rho (up, down):  4.157E-04 0.000E+00

     add environment contribution to local potential
     Polarization accuracy = 7.5E-12, # of iterations =  37

     total cpu time spent up to now is    12240.0 secs

     total energy              =   -3432.82386064 Ry
     estimated scf accuracy    <       0.00561071 Ry
     electrostatic embedding   =      -0.02451030 Ry
     cavitation energy         =       0.02135435 Ry
     PV energy                 =      -0.08101644 Ry
     correction to one-el term =     193.69035707 Ry

     iteration #  3     ecut=    50.00 Ry     beta= 0.70
     Davidson diagonalization with overlap
     ethr =  1.03E-06,  avg # of iterations =  1.0

     negative rho (up, down):  5.670E-04 0.000E+00

     add environment contribution to local potential
     Polarization accuracy = 7.8E-12, # of iterations =  37

     total cpu time spent up to now is    12513.5 secs

     total energy              =   -3432.82415509 Ry
     estimated scf accuracy    <       0.00075126 Ry
     electrostatic embedding   =      -0.02444967 Ry
     cavitation energy         =       0.02135116 Ry
     PV energy                 =      -0.08102058 Ry
     correction to one-el term =     193.70532393 Ry

     iteration #  4     ecut=    50.00 Ry     beta= 0.70
     Davidson diagonalization with overlap
     ethr =  2.06E-07,  avg # of iterations =  1.0

     negative rho (up, down):  7.567E-04 0.000E+00

     add environment contribution to local potential
     Polarization accuracy = 8.3E-12, # of iterations =  37

     total cpu time spent up to now is    12869.7 secs

     total energy              =   -3432.82418359 Ry
     estimated scf accuracy    <       0.00026085 Ry
     electrostatic embedding   =      -0.02438159 Ry
     cavitation energy         =       0.02135012 Ry
     PV energy                 =      -0.08102117 Ry
     correction to one-el term =     193.74556263 Ry

     iteration #  5     ecut=    50.00 Ry     beta= 0.70
     Davidson diagonalization with overlap
     ethr =  7.17E-08,  avg # of iterations =  1.0

     negative rho (up, down):  8.925E-04 0.000E+00

     add environment contribution to local potential
     Polarization accuracy = 8.0E-12, # of iterations =  37

     total cpu time spent up to now is    13204.8 secs

     total energy              =   -3432.82418500 Ry
     estimated scf accuracy    <       0.00006777 Ry
     electrostatic embedding   =      -0.02430278 Ry
     cavitation energy         =       0.02134981 Ry
     PV energy                 =      -0.08102119 Ry
     correction to one-el term =     193.79754769 Ry

     iteration #  6     ecut=    50.00 Ry     beta= 0.70
     Davidson diagonalization with overlap
     ethr =  1.86E-08,  avg # of iterations =  2.0

     negative rho (up, down):  9.022E-04 0.000E+00

     add environment contribution to local potential
     Polarization accuracy = 7.6E-12, # of iterations =  37

     total cpu time spent up to now is    13529.3 secs

     total energy              =   -3432.82418953 Ry
     estimated scf accuracy    <       0.00006267 Ry
     electrostatic embedding   =      -0.02421965 Ry
     cavitation energy         =       0.02134887 Ry
     PV energy                 =      -0.08102447 Ry
     correction to one-el term =     193.84005688 Ry

     iteration #  7     ecut=    50.00 Ry     beta= 0.70
     Davidson diagonalization with overlap
     ethr =  1.72E-08,  avg # of iterations =  1.0

     negative rho (up, down):  8.074E-04 0.000E+00

     add environment contribution to local potential
     Polarization accuracy = 6.5E-12, # of iterations =  37

     total cpu time spent up to now is    13754.3 secs

     total energy              =   -3432.82418750 Ry
     estimated scf accuracy    <       0.00002561 Ry
     electrostatic embedding   =      -0.02417799 Ry
     cavitation energy         =       0.02134843 Ry
     PV energy                 =      -0.08102810 Ry
     correction to one-el term =     193.85437378 Ry

     iteration #  8     ecut=    50.00 Ry     beta= 0.70
     Davidson diagonalization with overlap
     ethr =  7.04E-09,  avg # of iterations =  2.0

     negative rho (up, down):  6.626E-04 0.000E+00

     add environment contribution to local potential
     Polarization accuracy = 6.1E-12, # of iterations =  37

     total cpu time spent up to now is    13952.3 secs

     total energy              =   -3432.82418564 Ry
     estimated scf accuracy    <       0.00000516 Ry
     electrostatic embedding   =      -0.02407683 Ry
     cavitation energy         =       0.02134793 Ry
     PV energy                 =      -0.08103932 Ry
     correction to one-el term =     193.87675164 Ry

     iteration #  9     ecut=    50.00 Ry     beta= 0.70
     Davidson diagonalization with overlap
     ethr =  1.42E-09,  avg # of iterations =  2.0

     negative rho (up, down):  4.613E-04 0.000E+00

     add environment contribution to local potential
     Polarization accuracy = 5.5E-12, # of iterations =  37

     total cpu time spent up to now is    14140.0 secs

     total energy              =   -3432.82418414 Ry
     estimated scf accuracy    <       0.00000175 Ry
     electrostatic embedding   =      -0.02401675 Ry
     cavitation energy         =       0.02134806 Ry
     PV energy                 =      -0.08104609 Ry
     correction to one-el term =     193.88353245 Ry

     iteration # 10     ecut=    50.00 Ry     beta= 0.70
     Davidson diagonalization with overlap
     ethr =  4.81E-10,  avg # of iterations =  5.0

     negative rho (up, down):  3.240E-04 0.000E+00

     add environment contribution to local potential
     Polarization accuracy = 5.4E-12, # of iterations =  37

     total cpu time spent up to now is    14298.8 secs

     total energy              =   -3432.82418349 Ry
     estimated scf accuracy    <       0.00000027 Ry
     electrostatic embedding   =      -0.02397223 Ry
     cavitation energy         =       0.02134878 Ry
     PV energy                 =      -0.08105152 Ry
     correction to one-el term =     193.88211463 Ry

     iteration # 11     ecut=    50.00 Ry     beta= 0.70
     Davidson diagonalization with overlap
     ethr =  7.38E-11,  avg # of iterations =  5.0

     negative rho (up, down):  2.838E-04 0.000E+00

     add environment contribution to local potential
     Polarization accuracy = 5.4E-12, # of iterations =  37

     total cpu time spent up to now is    14448.8 secs

     total energy              =   -3432.82418318 Ry
     estimated scf accuracy    <       0.00000034 Ry
     electrostatic embedding   =      -0.02398375 Ry
     cavitation energy         =       0.02134952 Ry
     PV energy                 =      -0.08105163 Ry
     correction to one-el term =     193.86731545 Ry

     iteration # 12     ecut=    50.00 Ry     beta= 0.70
     Davidson diagonalization with overlap
     ethr =  7.38E-11,  avg # of iterations =  1.0

     negative rho (up, down):  2.141E-04 0.000E+00

     add environment contribution to local potential
     Polarization accuracy = 5.4E-12, # of iterations =  37

     total cpu time spent up to now is    14626.6 secs

     total energy              =   -3432.82418309 Ry
     estimated scf accuracy    <       0.00000021 Ry
     electrostatic embedding   =      -0.02398157 Ry
     cavitation energy         =       0.02134971 Ry
     PV energy                 =      -0.08105223 Ry
     correction to one-el term =     193.86447575 Ry

     iteration # 13     ecut=    50.00 Ry     beta= 0.70
     Davidson diagonalization with overlap
     ethr =  5.77E-11,  avg # of iterations =  2.0

     negative rho (up, down):  1.797E-04 0.000E+00

     add environment contribution to local potential
     Polarization accuracy = 6.0E-12, # of iterations =  38

     total cpu time spent up to now is    14819.3 secs

     total energy              =   -3432.82418295 Ry
     estimated scf accuracy    <       0.00000003 Ry
     electrostatic embedding   =      -0.02399912 Ry
     cavitation energy         =       0.02135021 Ry
     PV energy                 =      -0.08105133 Ry
     correction to one-el term =     193.85280778 Ry

     iteration # 14     ecut=    50.00 Ry     beta= 0.70
     Davidson diagonalization with overlap
     ethr =  8.21E-12,  avg # of iterations =  2.0

     negative rho (up, down):  1.579E-04 0.000E+00

     add environment contribution to local potential
     Polarization accuracy = 5.3E-12, # of iterations =  37

     total cpu time spent up to now is    14981.2 secs

     total energy              =   -3432.82418285 Ry
     estimated scf accuracy    <       0.00000002 Ry
     electrostatic embedding   =      -0.02400372 Ry
     cavitation energy         =       0.02135046 Ry
     PV energy                 =      -0.08105142 Ry
     correction to one-el term =     193.84787922 Ry

     iteration # 15     ecut=    50.00 Ry     beta= 0.70
     Davidson diagonalization with overlap
     ethr =  5.67E-12,  avg # of iterations =  2.0

     negative rho (up, down):  1.530E-04 0.000E+00

     add environment contribution to local potential
     Polarization accuracy = 5.3E-12, # of iterations =  37

     total cpu time spent up to now is    15175.6 secs

     total energy              =   -3432.82418277 Ry
     estimated scf accuracy    <          2.9E-09 Ry
     electrostatic embedding   =      -0.02400935 Ry
     cavitation energy         =       0.02135065 Ry
     PV energy                 =      -0.08105133 Ry
     correction to one-el term =     193.84408621 Ry

     iteration # 16     ecut=    50.00 Ry     beta= 0.70
     Davidson diagonalization with overlap
     ethr =  7.87E-13,  avg # of iterations =  2.0

     negative rho (up, down):  1.489E-04 0.000E+00

     the potential shift due to the Gaussian-smeared nuclei is    -1.3065 ev

     total cpu time spent up to now is    15352.2 secs

     End of self-consistent calculation

          k = 0.2500 0.2573 0.0000 ( 35510 PWs)   bands (ev):

   -78.6196 -78.6144 -78.6068 -78.6015 -78.2296 -78.2246 -78.2166 -78.2116
   -78.0685 -78.0634 -77.9365 -77.9317 -48.6996 -48.6929 -48.6869 -48.6864
   -48.6800 -48.6735 -48.5951 -48.5824 -48.5396 -48.5334 -48.5266 -48.5204
   -48.4949 -48.4817 -48.4775 -48.4646 -48.3658 -48.3619 -48.1997 -48.1947
   -48.1463 -48.1332 -48.0473 -48.0452 -48.0397 -48.0342 -48.0321 -48.0296
   -48.0166 -47.9439 -47.8940 -47.8533 -47.8362 -47.8087 -47.7968 -47.7931
   -24.4318 -24.1939 -24.0207 -23.9205 -23.8100 -23.7016 -23.6282 -23.6063
   -23.6016 -23.5313 -23.5198 -23.4497 -23.3901 -23.3674 -23.2135 -23.1813
   -23.1652 -23.1536 -23.1381 -23.0343 -23.0338 -23.0245 -22.9516 -22.9396
   -22.8630 -22.8318 -22.6629 -22.4843 -12.4605 -12.3888 -12.3414 -12.2846
   -12.1098 -12.0670 -11.9367 -11.8357 -11.7910 -11.7774 -11.6292 -11.6207
   -11.5920 -11.4740 -11.4661 -11.4557 -11.4174 -11.3696 -11.3154 -11.2932
   -11.1745 -11.1265 -11.0648 -10.9209 -10.8797 -10.8491 -10.7457 -10.4999
   -10.4724 -10.3307 -10.3149 -10.3102 -10.1364  -9.9972  -9.8484  -9.7901
    -9.6708  -9.6401  -9.4896  -9.4300  -9.3838  -9.3415  -9.3308  -9.2604
    -9.1498  -9.0877  -8.9552  -8.9375  -8.8835  -8.8740  -8.8069  -8.7193
    -8.7108  -8.6059  -8.6013  -8.5500  -8.5029  -8.4773  -8.4195  -8.3700
    -8.2296  -8.2202  -7.9997  -7.9655  -7.8902  -7.8861  -7.7966  -7.7763
    -7.7653  -7.6198  -7.4688  -7.4303  -7.3672  -7.2767  -7.2015  -7.1368
    -7.1042  -7.0593  -7.0193  -7.0122  -6.8777  -6.7754  -6.4750  -6.4614
    -5.7089  -5.6266  -5.5912  -5.5634  -5.5392  -5.4515  -5.3769  -5.3121
    -5.2879  -5.2629  -5.2463  -5.2428  -5.2318  -5.2008  -5.0968  -5.0458
    -5.0090  -4.9992  -4.9179  -4.8139  -4.7998  -4.7241  -4.5200  -4.3813
    -4.3651  -4.3607  -4.1170  -4.0569  -4.0265  -3.8632  -3.8382  -3.8095
    -3.7450  -3.7310  -3.5896  -3.3668  -2.8490  -2.3250  -2.2604  -2.2235
    -2.1947  -2.0589  -1.8609  -1.3050  -1.0536  -0.9229  -0.7787  -0.7389
    -0.6815  -0.5986  -0.5628  -0.5016  -0.4153  -0.3139  -0.3036  -0.1286
     0.1110   0.1177

     the Fermi energy is    -4.6527 ev

!    total energy              =   -3432.82418275 Ry
     estimated scf accuracy    <          9.7E-10 Ry
     smearing contrib. (-TS)   =       0.07059368 Ry
     internal energy E=F+TS    =   -3432.89477643 Ry

     The total energy is F=E-TS. E is the sum of the following terms:
     one-electron contribution =  -25193.25829998 Ry
     hartree contribution      =   12571.43496125 Ry
     xc contribution           =    -445.94223555 Ry
     ewald contribution        =    9707.66929222 Ry
     one-center paw contrib.   =    -266.55811812 Ry
     electrostatic embedding   =      -0.02401078 Ry
     cavitation energy         =       0.02135070 Ry
     PV energy                 =      -0.08105134 Ry
     correction to one-el term =     193.84333516 Ry

     WARNING: you are using the parabolic pbc correction;
              the potential shift above must be added to 
              band and Fermi energies.

     convergence has been achieved in  16 iterations

     negative rho (up, down):  1.489E-04 0.000E+00

     Forces acting on atoms (cartesian axes, Ry/au):

     atom    1 type  1   force =    -0.00733160    0.00000000    0.00085510
     atom    2 type  1   force =    -0.00733038    0.00000000    0.00085427
     atom    3 type  1   force =     0.00002661    0.00000000   -0.00275689
     atom    4 type  1   force =     0.00002654    0.00000000   -0.00275713
     atom    5 type  2   force =    -0.00009602    0.00000000   -0.00234098
     atom    6 type  2   force =    -0.00009547    0.00000000   -0.00234092
[...]
     atom   40 type  1   force =    -2.83838463    0.00000018   94.60334982
     atom   41 type  3   force =     2.75877217    0.00000002  -16.30648193
     atom   42 type  3   force =     2.75886423    0.00000002   16.30650610
     atom   43 type  3   force =     2.75901595    0.00000002  -16.30657196
     atom   44 type  3   force =     2.75910802    0.00000002   16.30659612
     The local contribution  to forces
     atom    1 type  1   force =     1.08942054   -0.00000000   94.31550809
     atom    2 type  1   force =     1.08965108   -0.00000000   94.31538074
     atom    3 type  1   force =     0.01611593   -0.00000000   92.07329710
     atom    4 type  1   force =     0.01613274    0.00000000   92.07326747
     atom    5 type  2   force =    -0.08460783   -0.00000000  172.65380019
     atom    6 type  2   force =    -0.08468258   -0.00000000  172.65381434
     atom    7 type  1   force =    -0.01316214    2.05893512   62.54497882
     atom    8 type  1   force =    -0.01324583    2.05896745   62.54502448
     atom    9 type  2   force =     0.05213659   -0.00000000  166.67018870
     atom   10 type  2   force =     0.05234668    0.00000000  166.67271378
     atom   11 type  1   force =    -0.01316214   -2.05893512   62.54497882
     atom   12 type  1   force =    -0.01324583   -2.05896745   62.54502448
     atom   13 type  1   force =     0.05714446    0.00000000   37.50086818
     atom   14 type  1   force =     0.05714405   -0.00000000   37.50091377
     atom   15 type  1   force =     0.17785467   -0.00000000   25.37560704
     atom   16 type  1   force =     0.17779327    0.00000000   25.37625840
     atom   17 type  2   force =    -0.01864170    0.00000000   -0.00585857
     atom   18 type  2   force =    -0.01857926    0.00000000   -0.00585857
     atom   19 type  1   force =    -0.01012743   -1.19543530   -0.00243970
     atom   20 type  1   force =    -0.01037535   -1.19547977   -0.00243970
     atom   21 type  2   force =    -0.56058931   -0.00000000   -0.00597516
     atom   22 type  2   force =    -0.56056922   -0.00000000   -0.00597517
     atom   23 type  1   force =    -0.01012746    1.19506890   -0.00243970
     atom   24 type  1   force =    -0.01037538    1.19511337   -0.00243970
     atom   25 type  1   force =     0.17783908   -0.00000000  -25.37734334
     atom   26 type  1   force =     0.17777769    0.00000000  -25.37799468
     atom   27 type  1   force =     0.05714520   -0.00000000  -37.50260256
     atom   28 type  1   force =     0.05714479    0.00000000  -37.50264815
     atom   29 type  2   force =    -0.08460662   -0.00000000 -172.65986674
     atom   30 type  2   force =    -0.08468137   -0.00000000 -172.65988089
     atom   31 type  1   force =    -0.01316020    2.05892060  -62.54741446
     atom   32 type  1   force =    -0.01324389    2.05895293  -62.54746012
     atom   33 type  2   force =     0.05212375    0.00000000 -166.67598987
     atom   34 type  2   force =     0.05233384    0.00000000 -166.67851493
     atom   35 type  1   force =    -0.01316020   -2.05892060  -62.54741446
     atom   36 type  1   force =    -0.01324389   -2.05895293  -62.54746012
     atom   37 type  1   force =     0.01611460   -0.00000000  -92.07719891
     atom   38 type  1   force =     0.01613141    0.00000000  -92.07716928
     atom   39 type  1   force =     1.08944811    0.00000000  -94.31704859
     atom   40 type  1   force =     1.08967865   -0.00000000  -94.31692124
     atom   41 type  3   force =    -2.67255584    0.00000000   16.27687078
     atom   42 type  3   force =    -2.67255584    0.00000000  -16.27687078
     atom   43 type  3   force =    -2.67273902    0.00000000   16.27693147
     atom   44 type  3   force =    -2.67273902   -0.00000000  -16.27693147
     The core correction contribution to forces
     atom    1 type  1   force =    -0.01754935    0.00000000   -0.00324977
     atom    2 type  1   force =    -0.01754858    0.00000000   -0.00324993
     atom    3 type  1   force =    -0.00004349   -0.00000000   -0.01080991
     atom    4 type  1   force =    -0.00004349    0.00000000   -0.01080988
     atom    5 type  2   force =     0.00000000    0.00000000    0.00000000
     atom    6 type  2   force =     0.00000000    0.00000000    0.00000000
     atom    7 type  1   force =     0.00013033    0.00023305   -0.00008801
     atom    8 type  1   force =     0.00013035    0.00023303   -0.00008810
     atom    9 type  2   force =     0.00000000    0.00000000    0.00000000
     atom   10 type  2   force =     0.00000000    0.00000000    0.00000000
     atom   11 type  1   force =     0.00013033   -0.00023305   -0.00008801
     atom   12 type  1   force =     0.00013035   -0.00023303   -0.00008810
     atom   13 type  1   force =    -0.00007473   -0.00000000   -0.00032317
     atom   14 type  1   force =    -0.00007473   -0.00000000   -0.00032319
     atom   15 type  1   force =    -0.00003546   -0.00000000   -0.00080587
     atom   16 type  1   force =    -0.00003569   -0.00000000   -0.00080657
     atom   17 type  2   force =     0.00000000    0.00000000    0.00000000
     atom   18 type  2   force =     0.00000000    0.00000000    0.00000000
     atom   19 type  1   force =    -0.00006867    0.00028411   -0.00000202
     atom   20 type  1   force =    -0.00006837    0.00028411   -0.00000202
     atom   21 type  2   force =     0.00000000    0.00000000    0.00000000
     atom   22 type  2   force =     0.00000000    0.00000000    0.00000000
     atom   23 type  1   force =    -0.00006867   -0.00028471   -0.00000202
     atom   24 type  1   force =    -0.00006837   -0.00028471   -0.00000202
     atom   25 type  1   force =    -0.00003550   -0.00000000    0.00080376
     atom   26 type  1   force =    -0.00003574   -0.00000000    0.00080446
     atom   27 type  1   force =    -0.00007473   -0.00000000    0.00032078
     atom   28 type  1   force =    -0.00007473   -0.00000000    0.00032081
     atom   29 type  2   force =     0.00000000    0.00000000    0.00000000
     atom   30 type  2   force =     0.00000000    0.00000000    0.00000000
     atom   31 type  1   force =     0.00013036    0.00023296    0.00008620
     atom   32 type  1   force =     0.00013038    0.00023294    0.00008629
     atom   33 type  2   force =     0.00000000    0.00000000    0.00000000
     atom   34 type  2   force =     0.00000000    0.00000000    0.00000000
     atom   35 type  1   force =     0.00013036   -0.00023296    0.00008620
     atom   36 type  1   force =     0.00013038   -0.00023294    0.00008629
     atom   37 type  1   force =    -0.00004348    0.00000000    0.01080525
     atom   38 type  1   force =    -0.00004348   -0.00000000    0.01080522
     atom   39 type  1   force =    -0.01755011   -0.00000000    0.00324738
     atom   40 type  1   force =    -0.01754935   -0.00000000    0.00324754
     atom   41 type  3   force =     0.00000000    0.00000000    0.00000000
     atom   42 type  3   force =     0.00000000    0.00000000    0.00000000
     atom   43 type  3   force =     0.00000000    0.00000000    0.00000000
     atom   44 type  3   force =     0.00000000    0.00000000    0.00000000
     The Hubbard contrib.    to forces
     atom    1 type  1   force =     0.00000000    0.00000000    0.00000000
     atom    2 type  1   force =     0.00000000    0.00000000    0.00000000
     atom    3 type  1   force =     0.00000000    0.00000000    0.00000000
     atom    4 type  1   force =     0.00000000    0.00000000    0.00000000
     atom    5 type  2   force =     0.00000000    0.00000000    0.00000000
     atom    6 type  2   force =     0.00000000    0.00000000    0.00000000
     atom    7 type  1   force =     0.00000000    0.00000000    0.00000000
     atom    8 type  1   force =     0.00000000    0.00000000    0.00000000
     atom    9 type  2   force =     0.00000000    0.00000000    0.00000000
     atom   10 type  2   force =     0.00000000    0.00000000    0.00000000
     atom   11 type  1   force =     0.00000000    0.00000000    0.00000000
     atom   12 type  1   force =     0.00000000    0.00000000    0.00000000
     atom   13 type  1   force =     0.00000000    0.00000000    0.00000000
     atom   14 type  1   force =     0.00000000    0.00000000    0.00000000
     atom   15 type  1   force =     0.00000000    0.00000000    0.00000000
     atom   16 type  1   force =     0.00000000    0.00000000    0.00000000
     atom   17 type  2   force =     0.00000000    0.00000000    0.00000000
     atom   18 type  2   force =     0.00000000    0.00000000    0.00000000
     atom   19 type  1   force =     0.00000000    0.00000000    0.00000000
     atom   20 type  1   force =     0.00000000    0.00000000    0.00000000
     atom   21 type  2   force =     0.00000000    0.00000000    0.00000000
     atom   22 type  2   force =     0.00000000    0.00000000    0.00000000
     atom   23 type  1   force =     0.00000000    0.00000000    0.00000000
     atom   24 type  1   force =     0.00000000    0.00000000    0.00000000
     atom   25 type  1   force =     0.00000000    0.00000000    0.00000000
     atom   26 type  1   force =     0.00000000    0.00000000    0.00000000
     atom   27 type  1   force =     0.00000000    0.00000000    0.00000000
     atom   28 type  1   force =     0.00000000    0.00000000    0.00000000
     atom   29 type  2   force =     0.00000000    0.00000000    0.00000000
     atom   30 type  2   force =     0.00000000    0.00000000    0.00000000
     atom   31 type  1   force =     0.00000000    0.00000000    0.00000000
     atom   32 type  1   force =     0.00000000    0.00000000    0.00000000
     atom   33 type  2   force =     0.00000000    0.00000000    0.00000000
     atom   34 type  2   force =     0.00000000    0.00000000    0.00000000
     atom   35 type  1   force =     0.00000000    0.00000000    0.00000000
     atom   36 type  1   force =     0.00000000    0.00000000    0.00000000
     atom   37 type  1   force =     0.00000000    0.00000000    0.00000000
     atom   38 type  1   force =     0.00000000    0.00000000    0.00000000
     atom   39 type  1   force =     0.00000000    0.00000000    0.00000000
     atom   40 type  1   force =     0.00000000    0.00000000    0.00000000
     atom   41 type  3   force =     0.00000000    0.00000000    0.00000000
     atom   42 type  3   force =     0.00000000    0.00000000    0.00000000
     atom   43 type  3   force =     0.00000000    0.00000000    0.00000000
     atom   44 type  3   force =     0.00000000    0.00000000    0.00000000
     The SCF correction term to forces
     atom    1 type  1   force =    -0.00000107   -0.00000000    0.00000081
     atom    2 type  1   force =     0.00000062   -0.00000000    0.00000068
     atom    3 type  1   force =    -0.00000070   -0.00000000    0.00000017
     atom    4 type  1   force =     0.00000059   -0.00000000    0.00000001
     atom    5 type  2   force =     0.00000138   -0.00000000   -0.00000062
     atom    6 type  2   force =    -0.00000063   -0.00000000   -0.00000088
     atom    7 type  1   force =     0.00000069   -0.00000054   -0.00000002
     atom    8 type  1   force =    -0.00000055   -0.00000077   -0.00000023
     atom    9 type  2   force =    -0.00000158    0.00000000    0.00000112
     atom   10 type  2   force =     0.00000077    0.00000000   -0.00000015
     atom   11 type  1   force =     0.00000069    0.00000054   -0.00000002
     atom   12 type  1   force =    -0.00000055    0.00000077   -0.00000023
     atom   13 type  1   force =    -0.00000049   -0.00000000   -0.00000020
     atom   14 type  1   force =     0.00000047   -0.00000000   -0.00000033
     atom   15 type  1   force =    -0.00000038    0.00000000    0.00000085
     atom   16 type  1   force =     0.00000049    0.00000000    0.00000029
     atom   17 type  2   force =    -0.00000053   -0.00000000   -0.00000001
     atom   18 type  2   force =     0.00000066   -0.00000000   -0.00000001
     atom   19 type  1   force =    -0.00000004    0.00000005   -0.00000000
     atom   20 type  1   force =    -0.00000029    0.00000032   -0.00000000
     atom   21 type  2   force =    -0.00000037    0.00000000   -0.00000001
     atom   22 type  2   force =    -0.00000012    0.00000000   -0.00000001
     atom   23 type  1   force =    -0.00000004   -0.00000005   -0.00000000
     atom   24 type  1   force =    -0.00000029   -0.00000032   -0.00000000
     atom   25 type  1   force =    -0.00000037    0.00000000   -0.00000085
     atom   26 type  1   force =     0.00000049    0.00000000   -0.00000029
     atom   27 type  1   force =    -0.00000049   -0.00000000    0.00000020
     atom   28 type  1   force =     0.00000047   -0.00000000    0.00000032
     atom   29 type  2   force =     0.00000138   -0.00000000    0.00000061
     atom   30 type  2   force =    -0.00000063   -0.00000000    0.00000087
     atom   31 type  1   force =     0.00000069   -0.00000054    0.00000002
     atom   32 type  1   force =    -0.00000055   -0.00000077    0.00000022
     atom   33 type  2   force =    -0.00000158    0.00000000   -0.00000112
     atom   34 type  2   force =     0.00000077    0.00000000    0.00000014
     atom   35 type  1   force =     0.00000069    0.00000054    0.00000002
     atom   36 type  1   force =    -0.00000055    0.00000077    0.00000022
     atom   37 type  1   force =    -0.00000070   -0.00000000   -0.00000017
     atom   38 type  1   force =     0.00000059   -0.00000000   -0.00000001
     atom   39 type  1   force =    -0.00000107    0.00000000   -0.00000081
     atom   40 type  1   force =     0.00000062    0.00000000   -0.00000068
     atom   41 type  3   force =     0.00000015   -0.00000000   -0.00000004
     atom   42 type  3   force =     0.00000015    0.00000000    0.00000005
     atom   43 type  3   force =     0.00000001    0.00000000    0.00000006
     atom   44 type  3   force =     0.00000001    0.00000000   -0.00000006

     Total force =     0.000254     Total SCF correction =     0.000006
     Energy error            =      2.2E-07 Ry
     Gradient error          =      9.6E-05 Ry/Bohr

     bfgs converged in  22 scf cycles and  21 bfgs steps
     (criteria: energy <  1.0E-04 Ry, force <  1.0E-04 Ry/Bohr)

     End of BFGS Geometry Optimization

     Final energy             =   -3432.8257751665 Ry

     File /storage/home/mgm6007/ixd4/Maria/Strain0_Files/RuO2-110-0-01/RuO2-110-0-01.bfgs deleted, as requested
Begin final coordinates

ATOMIC_POSITIONS (crystal)
O            -0.0101576074        0.5000000000        0.2705699953
O             0.4898444020        0.5000000000        0.2705684274
O            -0.0008232162        0.0000000000        0.3065236025
O             0.4991766051        0.0000000000        0.3065236536
Ru            0.2490569934        0.0000000000        0.3536965619
Ru            0.7490571070        0.0000000000        0.3536965312
O             0.2485105090        0.3112498635        0.3573351695
O             0.7485106497        0.3112498097        0.3573350344
Ru           -0.0012873709        0.5000000000        0.3572024832
Ru            0.4987128462        0.5000000000        0.3572010423
O             0.2485105090        0.6887501365        0.3573351695
O             0.7485106497        0.6887501903        0.3573350344
O            -0.0004280490        0.0000000000        0.4118805116
O             0.4995720020        0.0000000000        0.4118805632
O             0.0042411071        0.5000000000        0.4447647014
O             0.5042409486        0.5000000000        0.4447620150
Ru            0.0005152781        0.0000000000        0.5000010000
Ru            0.5005153687        0.0000000000        0.5000010000
O             0.2504906473        0.1901172450        0.5000010000
O             0.7504898903        0.1901170815        0.5000010000
Ru            0.2514209232        0.5000000000        0.5000010000
Ru            0.7514144751        0.5000000000        0.5000010000
O             0.2504906473        0.8098837550        0.5000010000
O             0.7504898903        0.8098839185        0.5000010000
O             0.0042411071        0.5000000000        0.5552362986
O             0.5042409486        0.5000000000        0.5552389850
O            -0.0004280490        0.0000000000        0.5881204884
O             0.4995720020        0.0000000000        0.5881204368
Ru            0.2490569934        0.0000000000        0.6463044381
Ru            0.7490571070        0.0000000000        0.6463044688
O             0.2485105090        0.3112498635        0.6426658305
O             0.7485106497        0.3112498097        0.6426659656
Ru           -0.0012873709        0.5000000000        0.6427985168
Ru            0.4987128462        0.5000000000        0.6427999577
O             0.2485105090        0.6887501365        0.6426658305
O             0.7485106497        0.6887501903        0.6426659656
O            -0.0008232162        0.0000000000        0.6934783975
O             0.4991766051        0.0000000000        0.6934783464
O            -0.0101576074        0.5000000000        0.7294310047
O             0.4898444020        0.5000000000        0.7294325726
H             0.1285553211        0.5000000000        0.2517131967
H             0.1285553211        0.5000000000        0.7482868033
H             0.6285530334        0.5000000000        0.2517123711
H             0.6285530334        0.5000000000        0.7482876289
End final coordinates



     Writing all to output data dir /storage/home/mgm6007/ixd4/Maria/Strain0_Files/RuO2-110-0-01/RuO2-110-0-01.save/
 
     init_run     :    509.82s CPU    867.93s WALL (       1 calls)
     electrons    :  51322.57s CPU  91107.82s WALL (      22 calls)
     update_pot   :     36.37s CPU     36.39s WALL (      21 calls)
     forces       :     35.36s CPU     35.62s WALL (      22 calls)

     Called by init_run:
     wfcinit      :      0.51s CPU      0.51s WALL (       1 calls)
     potinit      :    420.92s CPU    678.55s WALL (       1 calls)
     hinit0       :     87.92s CPU    188.35s WALL (       1 calls)

     Called by electrons:
     c_bands      :    464.82s CPU    465.28s WALL (     380 calls)
     sum_band     :    106.18s CPU    106.35s WALL (     380 calls)
     v_of_rho     :    114.85s CPU    115.00s WALL (     383 calls)
     newd         :     26.01s CPU     26.02s WALL (     383 calls)
     PAW_pot      :     46.55s CPU     46.63s WALL (     404 calls)
     mix_rho      :    277.57s CPU    277.66s WALL (     380 calls)

     Called by c_bands:
     init_us_2    :      4.87s CPU      4.88s WALL (     782 calls)
     init_us_2:cp :      4.87s CPU      4.88s WALL (     782 calls)
     cegterg      :    446.93s CPU    447.31s WALL (     380 calls)

     Called by *egterg:
     cdiaghg      :     52.81s CPU     52.82s WALL (    1061 calls)
     h_psi        :    239.92s CPU    240.14s WALL (    1102 calls)
     s_psi        :     34.87s CPU     34.88s WALL (    1102 calls)
     g_psi        :      1.16s CPU      1.16s WALL (     721 calls)

     Called by h_psi:
     h_psi:calbec :     34.83s CPU     34.85s WALL (    1102 calls)
     vloc_psi     :    166.74s CPU    166.90s WALL (    1102 calls)
     add_vuspsi   :     35.32s CPU     35.35s WALL (    1102 calls)

     General routines
     calbec       :     55.45s CPU     55.50s WALL (    1591 calls)
     fft          :  12639.28s CPU  12639.37s WALL (    5217 calls)
     ffts         :     99.34s CPU     99.31s WALL (  154436 calls)
     fftw         :    142.05s CPU    142.21s WALL (  433862 calls)
     interpolate  :  12606.16s CPU  12606.24s WALL (     383 calls)
 
     Parallel routines
 
     Environ routines
 
     PWSCF        :     15h13m CPU   1d 2h58m WALL

 
   This run was terminated on:  19:12:47  19Jul2023            

=------------------------------------------------------------------------------=
   JOB DONE.
=------------------------------------------------------------------------------=
