
     Program PWSCF v.7.2 starts on 23Jul2023 at 14:19:13 
        Git branch: heads/qe-7.2
        Last git commit: b4c5e8deeb7d1863e7553a87b45f8d22c21926a5
        Last git commit date: Mon Mar 27 16:12:09 2023 +0000
        Last git commit subject: Merge branch 'merge_fix_hubbard' into 'develop'

     This program is part of the open-source Quantum ESPRESSO suite
     for quantum simulation of materials; please cite
         "P. Giannozzi et al., J. Phys.:Condens. Matter 21 395502 (2009);
         "P. Giannozzi et al., J. Phys.:Condens. Matter 29 465901 (2017);
         "P. Giannozzi et al., J. Chem. Phys. 152 154105 (2020);
          URL http://www.quantum-espresso.org", 
     in publications or presentations arising from this work. More details at
     http://www.quantum-espresso.org/quote

     Parallel version (MPI), running on    20 processors

     MPI processes distributed on     1 nodes
     107402 MiB available memory on the printing compute node when the environment starts
 
     Reading input from RuO2-110-0-24.in

     Current dimensions of program PWSCF are:
     Max number of different atomic species (ntypx) = 10
     Max number of k-points (npk) =  40000
     Max angular momentum in pseudopotentials (lmaxx) =  4
 
     Reading input from environ.in:
     * Environ restarting
     * setting up water environment
     * using electronic solvent mode
     * setting boundary derivatives method to SCCS default
     

     File /storage/home/mgm6007/ixd4/Maria/Strain2_Files/RuO2-110-0-24/RuO2-110-0-24.update deleted, as requested

     File /storage/home/mgm6007/ixd4/Maria/Strain2_Files/RuO2-110-0-24/RuO2-110-0-24.bfgs deleted, as requested
     file O.pbe-n-kjpaw_psl.0.1.UPF: wavefunction(s)  2P renormalized
     Message from routine setup:
     using ibrav=0 with symmetry is DISCOURAGED, use correct ibrav instead
 
     R & G space division:  proc/nbgrp/npool/nimage =      20
     Subspace diagonalization in iterative solution of the eigenvalue problem:
     one sub-group per band group will be used
     scalapack distributed-memory algorithm (size of sub-group:  2*  2 procs)

 
     Parallelization info
     --------------------
     sticks:   dense  smooth     PW     G-vecs:    dense   smooth      PW
     Min         279     111     29                55537    14039    1893
     Max         280     112     30                55546    14052    1904
     Sum        5595    2237    595              1110843   280917   37967
 
     Using Slab Decomposition
 


     bravais-lattice index     =            0
     lattice parameter (alat)  =      12.2467  a.u.
     unit-cell volume          =    5883.2137 (a.u.)^3
     number of atoms/cell      =           44
     number of atomic types    =            3
     number of electrons       =       364.00
     number of Kohn-Sham states=          218
     kinetic-energy cutoff     =      50.0000  Ry
     charge density cutoff     =     500.0000  Ry
     scf convergence threshold =      1.0E-09
     mixing beta               =       0.7000
     number of iterations used =            8  local-TF  mixing
     energy convergence thresh.=      1.0E-04
     force convergence thresh. =      1.0E-04
     Exchange-correlation= PBE
                           (   1   4   3   4   0   0   0)
     nstep                     =          200


     ================================================================================
 
                                  Environ Setup Summary

     ================================================================================
 
     Please cite

          O. Andreussi, I. Dabo and N. Marzari, J. Chem. Phys. 136, 064102 (2012)

     in publications or presentations arising from this work.

     ================================================================================
 
     Parameters
     ==========

     compensation onset threshold      =               0.1000E+00
     static permittivity               =                    78.30
     surface tension in input (dyn/cm) =                    47.90
     surface tension in internal units =               0.6153E-04
     external pressure in input (GPa)  =                    -0.36
     external pressure in inter. units =              -0.2447E-04

     Solvent Boundary
     ================

     solvent mode                      =               electronic
     derivatives method                =                    chain
     numerical core for derivatives    =                      fft
     switching function adopted        =                     SCCS
     density limit for vacuum region   =               0.5000E-02
     density limit for bulk solvent    =               0.1000E-03

     Electrostatic Setup
     ===================

     electrostatic problem to solve    =              generalized
     numerical solver adopted          =                       cg
     type of auxiliary density adopted =                     none
     numerical core for poisson        =                      fft
     type of pbc corrections           =                parabolic
     numerical core for corrections    =                      1da

     ================================================================================
 

     celldm(1)=  12.246684  celldm(2)=   0.000000  celldm(3)=   0.000000
     celldm(4)=   0.000000  celldm(5)=   0.000000  celldm(6)=   0.000000

     crystal axes: (cart. coord. in units of alat)
               a(1) = (   1.000000   0.000000   0.000000 )  
               a(2) = (   0.000000   0.937861   0.000000 )  
               a(3) = (   0.000000   0.000000   3.415235 )  

     reciprocal axes: (cart. coord. in units 2 pi/alat)
               b(1) = (  1.000000  0.000000  0.000000 )  
               b(2) = (  0.000000  1.066256  0.000000 )  
               b(3) = (  0.000000  0.000000  0.292806 )  


     PseudoPot. # 1 for O  read from file:
     /gpfs/group/ixd4/default/Simon/pseudopotentials/materialscloud/SSSP_1.3.0_PBE_efficiency/O.pbe-n-kjpaw_psl.0.1.UPF
     MD5 check sum: 0234752ac141de4415c5fc33072bef88
     Pseudo is Projector augmented-wave + core cor, Zval =  6.0
     Generated using "atomic" code by A. Dal Corso  v.5.0.99 svn rev. 10869
     Shape of augmentation charge: BESSEL
     Using radial grid of 1095 points,  4 beta functions with: 
                l(1) =   0
                l(2) =   0
                l(3) =   1
                l(4) =   1
     Q(r) pseudized with 0 coefficients 


     PseudoPot. # 2 for Ru read from file:
     /gpfs/group/ixd4/default/Simon/pseudopotentials/materialscloud/SSSP_1.3.0_PBE_efficiency/Ru_ONCV_PBE-1.0.oncvpsp.upf
     MD5 check sum: be037bb81c227cfb9b1461a9f099f4bd
     Pseudo is Norm-conserving, Zval = 16.0
     Generated using ONCVPSP code by D. R. Hamann
     Using radial grid of 1458 points,  6 beta functions with: 
                l(1) =   0
                l(2) =   0
                l(3) =   1
                l(4) =   1
                l(5) =   2
                l(6) =   2

     PseudoPot. # 3 for H  read from file:
     /gpfs/group/ixd4/default/Simon/pseudopotentials/materialscloud/SSSP_1.3.0_PBE_efficiency/H.pbe-rrkjus_psl.1.0.0.UPF
     MD5 check sum: f52b6d4d1c606e5624b1dc7b2218f220
     Pseudo is Ultrasoft, Zval =  1.0
     Generated using "atomic" code by A. Dal Corso  v.5.1
     Using radial grid of  929 points,  2 beta functions with: 
                l(1) =   0
                l(2) =   0
     Q(r) pseudized with 0 coefficients 


     atomic species   valence    mass     pseudopotential
        O              6.00    15.99940     O ( 1.00)
        Ru            16.00   101.07000     Ru( 1.00)
        H              1.00     1.00794     H ( 1.00)

      8 Sym. Ops., with inversion, found



   Cartesian axes

     site n.     atom                  positions (alat units)
         1           O   tau(   1) = (   0.0000000   0.4689304   0.9362724  )
         2           O   tau(   2) = (   0.5000000   0.4689304   0.9322441  )
         3           O   tau(   3) = (   0.0000000   0.0000000   0.9898251  )
         4           O   tau(   4) = (   0.5000000   0.0000000   1.0501308  )
         5           Ru  tau(   5) = (   0.2614563   0.0000000   1.2234188  )
         6           Ru  tau(   6) = (   0.7385437   0.0000000   1.2234188  )
         7           O   tau(   7) = (   0.2500655   0.2911917   1.2244457  )
         8           O   tau(   8) = (   0.7499345   0.2911917   1.2244457  )
         9           Ru  tau(   9) = (   0.0000000   0.4689304   1.2079522  )
        10           Ru  tau(  10) = (   0.5000000   0.4689304   1.1984911  )
        11           O   tau(  11) = (   0.2500655   0.6466691   1.2244457  )
        12           O   tau(  12) = (   0.7499345   0.6466691   1.2244457  )
        13           O   tau(  13) = (   0.0000000   0.0000000   1.4041292  )
        14           O   tau(  14) = (   0.5000000   0.0000000   1.4080405  )
        15           O   tau(  15) = (   0.0000000   0.4689304   1.5198920  )
        16           O   tau(  16) = (   0.5000000   0.4689304   1.5192679  )
        17           Ru  tau(  17) = (   0.0000000   0.0000000   1.7076210  )
        18           Ru  tau(  18) = (   0.5000000   0.0000000   1.7076210  )
        19           O   tau(  19) = (   0.2487255   0.1763263   1.7076210  )
        20           O   tau(  20) = (   0.7512745   0.1763263   1.7076210  )
        21           Ru  tau(  21) = (   0.2513830   0.4689304   1.7076210  )
        22           Ru  tau(  22) = (   0.7486170   0.4689304   1.7076210  )
        23           O   tau(  23) = (   0.2487255   0.7615355   1.7076210  )
        24           O   tau(  24) = (   0.7512745   0.7615355   1.7076210  )
        25           O   tau(  25) = (   0.0000000   0.4689304   1.8953466  )
        26           O   tau(  26) = (   0.5000000   0.4689304   1.8959707  )
        27           O   tau(  27) = (   0.0000000   0.0000000   2.0111095  )
        28           O   tau(  28) = (   0.5000000   0.0000000   2.0071981  )
        29           Ru  tau(  29) = (   0.2614563   0.0000000   2.1918198  )
        30           Ru  tau(  30) = (   0.7385437   0.0000000   2.1918198  )
        31           O   tau(  31) = (   0.2500655   0.2911917   2.1907930  )
        32           O   tau(  32) = (   0.7499345   0.2911917   2.1907930  )
        33           Ru  tau(  33) = (   0.0000000   0.4689304   2.2072864  )
        34           Ru  tau(  34) = (   0.5000000   0.4689304   2.2167475  )
        35           O   tau(  35) = (   0.2500655   0.6466691   2.1907930  )
        36           O   tau(  36) = (   0.7499345   0.6466691   2.1907930  )
        37           O   tau(  37) = (   0.0000000   0.0000000   2.4254169  )
        38           O   tau(  38) = (   0.5000000   0.0000000   2.3651112  )
        39           O   tau(  39) = (   0.0000000   0.4689304   2.4789662  )
        40           O   tau(  40) = (   0.5000000   0.4689304   2.4829945  )
        41           H   tau(  41) = (   0.0000000   0.1208629   0.8968759  )
        42           H   tau(  42) = (   0.0000000   0.1208629   2.5183594  )
        43           H   tau(  43) = (   0.0000000   0.8169980   0.8968759  )
        44           H   tau(  44) = (   0.0000000   0.8169980   2.5183594  )

     number of k points=     1  Marzari-Vanderbilt smearing, width (Ry)=  0.0300
                       cart. coord. in units 2pi/alat
        k(    1) = (   0.2500000   0.2665641   0.0000000), wk =   2.0000000

     Dense  grid:  1110843 G-vectors     FFT dimensions: (  90,  81, 300)

     Smooth grid:   280917 G-vectors     FFT dimensions: (  60,  54, 192)

     Estimated max dynamical RAM per process >     170.08 MB

     Estimated total dynamical RAM >       3.32 GB

     Check: negative core charge=   -0.000001

     Initial potential from superposition of free atoms

     starting charge     363.9933, renormalised to     364.0000

     add environment contribution to local potential
     Polarization accuracy = 1.7E-12, # of iterations =  23

     negative rho (up, down):  3.595E-05 0.000E+00
     Starting wfcs are  236 randomized atomic wfcs
     Checking if some PAW data can be deallocated... 

     total cpu time spent up to now is      646.6 secs

     per-process dynamical memory:   138.2 Mb

     Self-consistent Calculation

     iteration #  1     ecut=    50.00 Ry     beta= 0.70
     Davidson diagonalization with overlap
     ethr =  1.00E-02,  avg # of iterations =  2.0

     total cpu time spent up to now is      827.6 secs

     total energy              =   -3430.06476371 Ry
     estimated scf accuracy    <      10.40039451 Ry
     electrostatic embedding   =      -0.00164455 Ry
     cavitation energy         =       0.01966450 Ry
     PV energy                 =      -0.08371412 Ry
     correction to one-el term =     215.93176388 Ry

     iteration #  2     ecut=    50.00 Ry     beta= 0.70
     Davidson diagonalization with overlap
     ethr =  2.86E-03,  avg # of iterations =  2.0

     total cpu time spent up to now is      969.4 secs

     total energy              =   -3432.30987446 Ry
     estimated scf accuracy    <       2.87178863 Ry
     electrostatic embedding   =      -0.00243918 Ry
     cavitation energy         =       0.01986213 Ry
     PV energy                 =      -0.08389082 Ry
     correction to one-el term =     215.93369826 Ry

     iteration #  3     ecut=    50.00 Ry     beta= 0.70
     Davidson diagonalization with overlap
     ethr =  7.89E-04,  avg # of iterations =  1.0

     total cpu time spent up to now is     1126.0 secs

     total energy              =   -3432.53705429 Ry
     estimated scf accuracy    <       0.52538253 Ry
     electrostatic embedding   =      -0.00290220 Ry
     cavitation energy         =       0.01984907 Ry
     PV energy                 =      -0.08431286 Ry
     correction to one-el term =     215.93505539 Ry

     iteration #  4     ecut=    50.00 Ry     beta= 0.70
     Davidson diagonalization with overlap
     ethr =  1.44E-04,  avg # of iterations =  2.0

     total cpu time spent up to now is     1280.1 secs

     total energy              =   -3432.58496559 Ry
     estimated scf accuracy    <       0.79775467 Ry
     electrostatic embedding   =      -0.00303777 Ry
     cavitation energy         =       0.02006171 Ry
     PV energy                 =      -0.08389088 Ry
     correction to one-el term =     215.93507109 Ry

     iteration #  5     ecut=    50.00 Ry     beta= 0.70
     Davidson diagonalization with overlap
     ethr =  1.44E-04,  avg # of iterations =  1.0

     total cpu time spent up to now is     1437.3 secs

     total energy              =   -3432.57342681 Ry
     estimated scf accuracy    <       0.37542649 Ry
     electrostatic embedding   =      -0.00327380 Ry
     cavitation energy         =       0.02030262 Ry
     PV energy                 =      -0.08355128 Ry
     correction to one-el term =     215.93542961 Ry

     iteration #  6     ecut=    50.00 Ry     beta= 0.70
     Davidson diagonalization with overlap
     ethr =  1.03E-04,  avg # of iterations =  1.0

     total cpu time spent up to now is     1596.1 secs

     total energy              =   -3432.56459849 Ry
     estimated scf accuracy    <       0.26569085 Ry
     electrostatic embedding   =      -0.00347144 Ry
     cavitation energy         =       0.02070047 Ry
     PV energy                 =      -0.08275011 Ry
     correction to one-el term =     215.93553180 Ry

     iteration #  7     ecut=    50.00 Ry     beta= 0.70
     Davidson diagonalization with overlap
     ethr =  7.30E-05,  avg # of iterations =  1.0

     total cpu time spent up to now is     1768.0 secs

     total energy              =   -3432.55886483 Ry
     estimated scf accuracy    <       0.12615176 Ry
     electrostatic embedding   =      -0.00348523 Ry
     cavitation energy         =       0.02097310 Ry
     PV energy                 =      -0.08206961 Ry
     correction to one-el term =     215.93527827 Ry

     iteration #  8     ecut=    50.00 Ry     beta= 0.70
     Davidson diagonalization with overlap
     ethr =  3.47E-05,  avg # of iterations = 11.0

     add environment contribution to local potential
     Polarization accuracy = 7.5E-12, # of iterations =  38

     total cpu time spent up to now is     1928.7 secs

     total energy              =   -3432.55750401 Ry
     estimated scf accuracy    <       0.03510601 Ry
     electrostatic embedding   =      -0.00331902 Ry
     cavitation energy         =       0.02130295 Ry
     PV energy                 =      -0.08108308 Ry
     correction to one-el term =     215.93443371 Ry

     iteration #  9     ecut=    50.00 Ry     beta= 0.70
     Davidson diagonalization with overlap
     ethr =  9.64E-06,  avg # of iterations = 10.0

     total cpu time spent up to now is     2090.2 secs

     total energy              =   -3432.63613167 Ry
     estimated scf accuracy    <       0.33992449 Ry
     electrostatic embedding   =      -0.06823725 Ry
     cavitation energy         =       0.02146601 Ry
     PV energy                 =      -0.08062790 Ry
     correction to one-el term =     181.40949588 Ry

     iteration # 10     ecut=    50.00 Ry     beta= 0.70
     Davidson diagonalization with overlap
     ethr =  9.64E-06,  avg # of iterations =  1.0

     total cpu time spent up to now is     2245.5 secs

     total energy              =   -3432.61701684 Ry
     estimated scf accuracy    <       0.26311267 Ry
     electrostatic embedding   =      -0.06877155 Ry
     cavitation energy         =       0.02148964 Ry
     PV energy                 =      -0.08056132 Ry
     correction to one-el term =     181.41124073 Ry

     iteration # 11     ecut=    50.00 Ry     beta= 0.70
     Davidson diagonalization with overlap
     ethr =  9.64E-06,  avg # of iterations =  2.0

     add environment contribution to local potential
     Polarization accuracy = 2.5E-12, # of iterations =  41

     total cpu time spent up to now is     2391.7 secs

     total energy              =   -3432.61434772 Ry
     estimated scf accuracy    <       0.03094620 Ry
     electrostatic embedding   =      -0.07122965 Ry
     cavitation energy         =       0.02146863 Ry
     PV energy                 =      -0.08040165 Ry
     correction to one-el term =     181.41881239 Ry

     iteration # 12     ecut=    50.00 Ry     beta= 0.70
     Davidson diagonalization with overlap
     ethr =  8.50E-06,  avg # of iterations =  2.0

     negative rho (up, down):  7.595E-07 0.000E+00

     add environment contribution to local potential
     Polarization accuracy = 5.5E-12, # of iterations =  41

     total cpu time spent up to now is     2561.3 secs

     total energy              =   -3432.62229631 Ry
     estimated scf accuracy    <       0.03011588 Ry
     electrostatic embedding   =      -0.08246040 Ry
     cavitation energy         =       0.02140364 Ry
     PV energy                 =      -0.08040427 Ry
     correction to one-el term =     181.72653806 Ry

     iteration # 13     ecut=    50.00 Ry     beta= 0.70
     Davidson diagonalization with overlap
     ethr =  8.27E-06,  avg # of iterations =  8.0

     negative rho (up, down):  1.852E-04 0.000E+00

     add environment contribution to local potential
     Polarization accuracy = 5.5E-12, # of iterations =  41

     total cpu time spent up to now is     2702.3 secs

     total energy              =   -3432.62730079 Ry
     estimated scf accuracy    <       0.00452564 Ry
     electrostatic embedding   =      -0.09628255 Ry
     cavitation energy         =       0.02133979 Ry
     PV energy                 =      -0.08030014 Ry
     correction to one-el term =     182.05541122 Ry

     iteration # 14     ecut=    50.00 Ry     beta= 0.70
     Davidson diagonalization with overlap
     ethr =  1.24E-06,  avg # of iterations =  5.0

     negative rho (up, down):  1.582E-04 0.000E+00

     add environment contribution to local potential
     Polarization accuracy = 7.1E-12, # of iterations =  41

     total cpu time spent up to now is     2894.3 secs

     total energy              =   -3432.62801585 Ry
     estimated scf accuracy    <       0.00416073 Ry
     electrostatic embedding   =      -0.10139899 Ry
     cavitation energy         =       0.02130434 Ry
     PV energy                 =      -0.08029161 Ry
     correction to one-el term =     182.26102925 Ry

     iteration # 15     ecut=    50.00 Ry     beta= 0.70
     Davidson diagonalization with overlap
     ethr =  1.14E-06,  avg # of iterations =  5.0

     negative rho (up, down):  4.949E-06 0.000E+00

     add environment contribution to local potential
     Polarization accuracy = 4.0E-12, # of iterations =  41

     total cpu time spent up to now is     3055.6 secs

     total energy              =   -3432.62849322 Ry
     estimated scf accuracy    <       0.00400781 Ry
     electrostatic embedding   =      -0.10694019 Ry
     cavitation energy         =       0.02121447 Ry
     PV energy                 =      -0.08038287 Ry
     correction to one-el term =     182.88291510 Ry

     iteration # 16     ecut=    50.00 Ry     beta= 0.70
     Davidson diagonalization with overlap
     ethr =  1.10E-06,  avg # of iterations =  2.0

     negative rho (up, down):  5.049E-05 0.000E+00

     add environment contribution to local potential
     Polarization accuracy = 2.1E-12, # of iterations =  41

     total cpu time spent up to now is     3221.0 secs

     total energy              =   -3432.62881897 Ry
     estimated scf accuracy    <       0.00380265 Ry
     electrostatic embedding   =      -0.10701392 Ry
     cavitation energy         =       0.02118403 Ry
     PV energy                 =      -0.08043642 Ry
     correction to one-el term =     183.16491733 Ry

     iteration # 17     ecut=    50.00 Ry     beta= 0.70
     Davidson diagonalization with overlap
     ethr =  1.04E-06,  avg # of iterations =  6.0

     add environment contribution to local potential
     Polarization accuracy = 6.4E-12, # of iterations =  40

     total cpu time spent up to now is     3387.1 secs

     total energy              =   -3432.62841312 Ry
     estimated scf accuracy    <       0.00450848 Ry
     electrostatic embedding   =      -0.11120228 Ry
     cavitation energy         =       0.02111871 Ry
     PV energy                 =      -0.08050595 Ry
     correction to one-el term =     183.69486114 Ry

     iteration # 18     ecut=    50.00 Ry     beta= 0.70
     Davidson diagonalization with overlap
     ethr =  1.04E-06,  avg # of iterations =  9.0

     negative rho (up, down):  2.059E-06 0.000E+00

     add environment contribution to local potential
     Polarization accuracy = 4.7E-12, # of iterations =  46

     total cpu time spent up to now is     3540.4 secs

     total energy              =   -3432.62895772 Ry
     estimated scf accuracy    <       0.00034549 Ry
     electrostatic embedding   =      -0.10584472 Ry
     cavitation energy         =       0.02105313 Ry
     PV energy                 =      -0.08066710 Ry
     correction to one-el term =     184.58915532 Ry

     iteration # 19     ecut=    50.00 Ry     beta= 0.70
     Davidson diagonalization with overlap
     ethr =  9.49E-08,  avg # of iterations =  7.0

     negative rho (up, down):  2.627E-04 0.000E+00

     add environment contribution to local potential
     Polarization accuracy = 6.2E-12, # of iterations =  40

     total cpu time spent up to now is     3694.7 secs

     total energy              =   -3432.62899575 Ry
     estimated scf accuracy    <       0.00011800 Ry
     electrostatic embedding   =      -0.10496112 Ry
     cavitation energy         =       0.02104571 Ry
     PV energy                 =      -0.08067103 Ry
     correction to one-el term =     184.78953423 Ry

     iteration # 20     ecut=    50.00 Ry     beta= 0.70
     Davidson diagonalization with overlap
     c_bands:  1 eigenvalues not converged
     ethr =  3.24E-08,  avg # of iterations = 20.0

     negative rho (up, down):  1.960E-04 0.000E+00

     add environment contribution to local potential
     Polarization accuracy = 6.5E-12, # of iterations =  40

     total cpu time spent up to now is     3847.0 secs

     total energy              =   -3432.62903994 Ry
     estimated scf accuracy    <       0.00004023 Ry
     electrostatic embedding   =      -0.10328075 Ry
     cavitation energy         =       0.02104285 Ry
     PV energy                 =      -0.08066550 Ry
     correction to one-el term =     185.02068525 Ry

     iteration # 21     ecut=    50.00 Ry     beta= 0.70
     Davidson diagonalization with overlap
     ethr =  1.11E-08,  avg # of iterations = 12.0

     negative rho (up, down):  2.588E-04 0.000E+00

     add environment contribution to local potential
     Polarization accuracy = 6.6E-12, # of iterations =  39

     total cpu time spent up to now is     3987.9 secs

     total energy              =   -3432.62906327 Ry
     estimated scf accuracy    <       0.00002225 Ry
     electrostatic embedding   =      -0.10184806 Ry
     cavitation energy         =       0.02104785 Ry
     PV energy                 =      -0.08063801 Ry
     correction to one-el term =     185.18235441 Ry

     iteration # 22     ecut=    50.00 Ry     beta= 0.70
     Davidson diagonalization with overlap
     ethr =  6.11E-09,  avg # of iterations =  2.0

     negative rho (up, down):  5.511E-05 0.000E+00

     add environment contribution to local potential
     Polarization accuracy = 5.8E-12, # of iterations =  40

     total cpu time spent up to now is     4154.7 secs

     total energy              =   -3432.62906959 Ry
     estimated scf accuracy    <       0.00000558 Ry
     electrostatic embedding   =      -0.10127509 Ry
     cavitation energy         =       0.02104848 Ry
     PV energy                 =      -0.08063121 Ry
     correction to one-el term =     185.24555143 Ry

     iteration # 23     ecut=    50.00 Ry     beta= 0.70
     Davidson diagonalization with overlap
     ethr =  1.53E-09,  avg # of iterations =  4.0

     negative rho (up, down):  3.525E-05 0.000E+00

     add environment contribution to local potential
     Polarization accuracy = 5.6E-12, # of iterations =  40

     total cpu time spent up to now is     4318.3 secs

     total energy              =   -3432.62907560 Ry
     estimated scf accuracy    <       0.00000293 Ry
     electrostatic embedding   =      -0.10092666 Ry
     cavitation energy         =       0.02105117 Ry
     PV energy                 =      -0.08062257 Ry
     correction to one-el term =     185.25087490 Ry

     iteration # 24     ecut=    50.00 Ry     beta= 0.70
     Davidson diagonalization with overlap
     ethr =  8.06E-10,  avg # of iterations =  3.0

     negative rho (up, down):  3.334E-05 0.000E+00

     add environment contribution to local potential
     Polarization accuracy = 5.6E-12, # of iterations =  40

     total cpu time spent up to now is     4499.3 secs

     total energy              =   -3432.62907834 Ry
     estimated scf accuracy    <       0.00000071 Ry
     electrostatic embedding   =      -0.10069220 Ry
     cavitation energy         =       0.02105275 Ry
     PV energy                 =      -0.08061706 Ry
     correction to one-el term =     185.26136464 Ry

     iteration # 25     ecut=    50.00 Ry     beta= 0.70
     Davidson diagonalization with overlap
     ethr =  1.96E-10,  avg # of iterations =  3.0

     negative rho (up, down):  5.688E-05 0.000E+00

     add environment contribution to local potential
     Polarization accuracy = 5.5E-12, # of iterations =  40

     total cpu time spent up to now is     4690.9 secs

     total energy              =   -3432.62907963 Ry
     estimated scf accuracy    <       0.00000022 Ry
     electrostatic embedding   =      -0.10063012 Ry
     cavitation energy         =       0.02105325 Ry
     PV energy                 =      -0.08061609 Ry
     correction to one-el term =     185.26318856 Ry

     iteration # 26     ecut=    50.00 Ry     beta= 0.70
     Davidson diagonalization with overlap
     ethr =  6.04E-11,  avg # of iterations =  3.0

     negative rho (up, down):  8.374E-05 0.000E+00

     add environment contribution to local potential
     Polarization accuracy = 5.5E-12, # of iterations =  40

     total cpu time spent up to now is     4872.7 secs

     total energy              =   -3432.62908092 Ry
     estimated scf accuracy    <       0.00000018 Ry
     electrostatic embedding   =      -0.10056895 Ry
     cavitation energy         =       0.02105307 Ry
     PV energy                 =      -0.08061706 Ry
     correction to one-el term =     185.27274058 Ry

     iteration # 27     ecut=    50.00 Ry     beta= 0.70
     Davidson diagonalization with overlap
     ethr =  4.93E-11,  avg # of iterations =  2.0

     negative rho (up, down):  1.057E-04 0.000E+00

     add environment contribution to local potential
     Polarization accuracy = 5.2E-12, # of iterations =  40

     total cpu time spent up to now is     5039.2 secs

     total energy              =   -3432.62908127 Ry
     estimated scf accuracy    <       0.00000015 Ry
     electrostatic embedding   =      -0.10054437 Ry
     cavitation energy         =       0.02105264 Ry
     PV energy                 =      -0.08061821 Ry
     correction to one-el term =     185.28032648 Ry

     iteration # 28     ecut=    50.00 Ry     beta= 0.70
     Davidson diagonalization with overlap
     ethr =  4.10E-11,  avg # of iterations =  2.0

     negative rho (up, down):  1.376E-04 0.000E+00

     add environment contribution to local potential
     Polarization accuracy = 5.5E-12, # of iterations =  40

     total cpu time spent up to now is     5199.0 secs

     total energy              =   -3432.62908163 Ry
     estimated scf accuracy    <       0.00000009 Ry
     electrostatic embedding   =      -0.10050775 Ry
     cavitation energy         =       0.02105246 Ry
     PV energy                 =      -0.08061859 Ry
     correction to one-el term =     185.28700739 Ry

     iteration # 29     ecut=    50.00 Ry     beta= 0.70
     Davidson diagonalization with overlap
     ethr =  2.39E-11,  avg # of iterations =  2.0

     negative rho (up, down):  1.527E-04 0.000E+00

     add environment contribution to local potential
     Polarization accuracy = 5.6E-12, # of iterations =  40

     total cpu time spent up to now is     5358.0 secs

     total energy              =   -3432.62908218 Ry
     estimated scf accuracy    <       0.00000006 Ry
     electrostatic embedding   =      -0.10051878 Ry
     cavitation energy         =       0.02105208 Ry
     PV energy                 =      -0.08061997 Ry
     correction to one-el term =     185.28968972 Ry

     iteration # 30     ecut=    50.00 Ry     beta= 0.70
     Davidson diagonalization with overlap
     ethr =  1.76E-11,  avg # of iterations =  2.0

     negative rho (up, down):  1.550E-04 0.000E+00

     add environment contribution to local potential
     Polarization accuracy = 7.2E-12, # of iterations =  39

     total cpu time spent up to now is     5545.0 secs

     total energy              =   -3432.62908260 Ry
     estimated scf accuracy    <       0.00000006 Ry
     electrostatic embedding   =      -0.10050582 Ry
     cavitation energy         =       0.02105192 Ry
     PV energy                 =      -0.08062021 Ry
     correction to one-el term =     185.29305470 Ry

     iteration # 31     ecut=    50.00 Ry     beta= 0.70
     Davidson diagonalization with overlap
     ethr =  1.63E-11,  avg # of iterations =  2.0

     negative rho (up, down):  1.562E-04 0.000E+00

     add environment contribution to local potential
     Polarization accuracy = 5.5E-12, # of iterations =  40

     total cpu time spent up to now is     5722.6 secs

     total energy              =   -3432.62908345 Ry
     estimated scf accuracy    <       0.00000006 Ry
     electrostatic embedding   =      -0.10050348 Ry
     cavitation energy         =       0.02105176 Ry
     PV energy                 =      -0.08062016 Ry
     correction to one-el term =     185.29463319 Ry

     iteration # 32     ecut=    50.00 Ry     beta= 0.70
     Davidson diagonalization with overlap
     ethr =  1.58E-11,  avg # of iterations =  2.0

     negative rho (up, down):  1.501E-04 0.000E+00

     add environment contribution to local potential
     Polarization accuracy = 5.5E-12, # of iterations =  40

     total cpu time spent up to now is     5903.8 secs

     total energy              =   -3432.62908489 Ry
     estimated scf accuracy    <       0.00000006 Ry
     electrostatic embedding   =      -0.10052341 Ry
     cavitation energy         =       0.02105148 Ry
     PV energy                 =      -0.08062015 Ry
     correction to one-el term =     185.29475228 Ry

     iteration # 33     ecut=    50.00 Ry     beta= 0.70
     Davidson diagonalization with overlap
     ethr =  1.53E-11,  avg # of iterations =  2.0

     negative rho (up, down):  1.544E-04 0.000E+00

     add environment contribution to local potential
     Polarization accuracy = 5.0E-12, # of iterations =  39

     total cpu time spent up to now is     6092.4 secs

     total energy              =   -3432.62908784 Ry
     estimated scf accuracy    <       0.00000003 Ry
     electrostatic embedding   =      -0.10052970 Ry
     cavitation energy         =       0.02105137 Ry
     PV energy                 =      -0.08061943 Ry
     correction to one-el term =     185.29440507 Ry

     iteration # 34     ecut=    50.00 Ry     beta= 0.70
     Davidson diagonalization with overlap
     ethr =  9.51E-12,  avg # of iterations =  5.0

     negative rho (up, down):  1.504E-04 0.000E+00

     add environment contribution to local potential
     Polarization accuracy = 5.4E-12, # of iterations =  40

     total cpu time spent up to now is     6267.2 secs

     total energy              =   -3432.62909358 Ry
     estimated scf accuracy    <       0.00000002 Ry
     electrostatic embedding   =      -0.10053817 Ry
     cavitation energy         =       0.02105129 Ry
     PV energy                 =      -0.08061884 Ry
     correction to one-el term =     185.29375240 Ry

     iteration # 35     ecut=    50.00 Ry     beta= 0.70
     Davidson diagonalization with overlap
     ethr =  4.15E-12,  avg # of iterations =  3.0

     negative rho (up, down):  1.634E-04 0.000E+00

     add environment contribution to local potential
     Polarization accuracy = 5.4E-12, # of iterations =  40

     total cpu time spent up to now is     6440.6 secs

     total energy              =   -3432.62909696 Ry
     estimated scf accuracy    <       0.00000002 Ry
     electrostatic embedding   =      -0.10054777 Ry
     cavitation energy         =       0.02105151 Ry
     PV energy                 =      -0.08061869 Ry
     correction to one-el term =     185.29107605 Ry

     iteration # 36     ecut=    50.00 Ry     beta= 0.70
     Davidson diagonalization with overlap
     ethr =  4.15E-12,  avg # of iterations =  2.0

     negative rho (up, down):  1.583E-04 0.000E+00

     add environment contribution to local potential
     Polarization accuracy = 5.4E-12, # of iterations =  40

     total cpu time spent up to now is     6603.4 secs

     total energy              =   -3432.62909788 Ry
     estimated scf accuracy    <          9.2E-09 Ry
     electrostatic embedding   =      -0.10054364 Ry
     cavitation energy         =       0.02105144 Ry
     PV energy                 =      -0.08061915 Ry
     correction to one-el term =     185.29270530 Ry

     iteration # 37     ecut=    50.00 Ry     beta= 0.70
     Davidson diagonalization with overlap
     ethr =  2.52E-12,  avg # of iterations =  5.0

     negative rho (up, down):  1.605E-04 0.000E+00

     add environment contribution to local potential
     Polarization accuracy = 5.3E-12, # of iterations =  40

     total cpu time spent up to now is     6737.3 secs

     total energy              =   -3432.62910024 Ry
     estimated scf accuracy    <          5.4E-09 Ry
     electrostatic embedding   =      -0.10055344 Ry
     cavitation energy         =       0.02105171 Ry
     PV energy                 =      -0.08061967 Ry
     correction to one-el term =     185.29017588 Ry

     iteration # 38     ecut=    50.00 Ry     beta= 0.70
     Davidson diagonalization with overlap
     ethr =  1.49E-12,  avg # of iterations =  2.0

     negative rho (up, down):  1.558E-04 0.000E+00

     add environment contribution to local potential
     Polarization accuracy = 5.3E-12, # of iterations =  40

     total cpu time spent up to now is     6891.4 secs

     total energy              =   -3432.62910138 Ry
     estimated scf accuracy    <          4.6E-09 Ry
     electrostatic embedding   =      -0.10055114 Ry
     cavitation energy         =       0.02105178 Ry
     PV energy                 =      -0.08061993 Ry
     correction to one-el term =     185.29019862 Ry

     iteration # 39     ecut=    50.00 Ry     beta= 0.70
     Davidson diagonalization with overlap
     ethr =  1.27E-12,  avg # of iterations =  2.0

     negative rho (up, down):  1.534E-04 0.000E+00

     add environment contribution to local potential
     Polarization accuracy = 5.3E-12, # of iterations =  40

     total cpu time spent up to now is     7035.6 secs

     total energy              =   -3432.62910165 Ry
     estimated scf accuracy    <          1.4E-09 Ry
     electrostatic embedding   =      -0.10054851 Ry
     cavitation energy         =       0.02105182 Ry
     PV energy                 =      -0.08062001 Ry
     correction to one-el term =     185.29023089 Ry

     iteration # 40     ecut=    50.00 Ry     beta= 0.70
     Davidson diagonalization with overlap
     ethr =  3.96E-13,  avg # of iterations =  3.0

     negative rho (up, down):  1.510E-04 0.000E+00

     add environment contribution to local potential
     Polarization accuracy = 5.1E-12, # of iterations =  40

     total cpu time spent up to now is     7185.2 secs

     total energy              =   -3432.62910207 Ry
     estimated scf accuracy    <          1.0E-09 Ry
     electrostatic embedding   =      -0.10054324 Ry
     cavitation energy         =       0.02105182 Ry
     PV energy                 =      -0.08061993 Ry
     correction to one-el term =     185.29056881 Ry

     iteration # 41     ecut=    50.00 Ry     beta= 0.70
     Davidson diagonalization with overlap
     ethr =  2.80E-13,  avg # of iterations =  5.0

     negative rho (up, down):  1.466E-04 0.000E+00

     the potential shift due to the Gaussian-smeared nuclei is    -1.3223 ev

     total cpu time spent up to now is     7345.4 secs

     End of self-consistent calculation

          k = 0.2500 0.2666 0.0000 ( 35123 PWs)   bands (ev):

   -77.9594 -77.9528 -77.9474 -77.9409 -77.2619 -77.2556 -77.2504 -77.2441
   -77.0905 -77.0624 -77.0583 -77.0335 -48.4698 -48.4579 -48.3420 -48.3301
   -47.9741 -47.9621 -47.8734 -47.8614 -47.5999 -47.5881 -47.5616 -47.5498
   -47.5270 -47.5154 -47.5133 -47.5015 -47.3716 -47.3672 -47.3091 -47.2860
   -47.2780 -47.2573 -47.1764 -47.1649 -47.1314 -47.1091 -47.0973 -47.0907
   -47.0794 -47.0029 -46.9946 -46.9200 -46.9077 -46.8815 -46.8677 -46.8616
   -26.0121 -25.9956 -23.7058 -23.5496 -23.3990 -23.2474 -23.1137 -23.0638
   -22.9877 -22.8901 -22.5658 -22.5440 -22.5306 -22.3935 -22.3474 -22.3396
   -22.2105 -22.1436 -22.1129 -22.1034 -22.0338 -21.9282 -21.7276 -21.6134
   -21.6088 -21.4488 -21.3850 -21.3074 -13.5649 -13.5485 -11.8729 -11.8397
   -11.8266 -11.6277 -11.6030 -11.2651 -11.2133 -11.1010 -10.9917 -10.9588
   -10.9511 -10.8731 -10.8574 -10.7844 -10.6820 -10.6510 -10.5863 -10.4661
   -10.3955 -10.3723 -10.2971 -10.2653 -10.0494  -9.9969  -9.9309  -9.8265
    -9.7954  -9.6711  -9.6558  -9.4062  -9.3989  -9.3001  -9.2018  -9.1118
    -9.1069  -8.9557  -8.9001  -8.8777  -8.8364  -8.7390  -8.6796  -8.6267
    -8.5097  -8.4997  -8.3945  -8.2454  -8.1858  -8.1740  -8.0280  -7.9805
    -7.9272  -7.8971  -7.8822  -7.8741  -7.7836  -7.7291  -7.6945  -7.5753
    -7.5695  -7.5219  -7.4049  -7.3647  -7.3115  -7.2235  -7.1512  -7.0005
    -6.9229  -6.7545  -6.7388  -6.7257  -6.6419  -6.5198  -6.4294  -6.4172
    -6.3301  -6.2365  -6.1811  -6.0872  -6.0671  -6.0119  -5.9487  -5.7934
    -4.9672  -4.9506  -4.8114  -4.6563  -4.6012  -4.5958  -4.5022  -4.4463
    -4.4410  -4.3851  -4.3770  -4.3200  -4.2814  -4.2118  -4.1351  -4.1199
    -4.1071  -3.9972  -3.9440  -3.8353  -3.8179  -3.7345  -3.6789  -3.5032
    -3.4479  -3.3464  -3.2698  -3.2137  -3.0588  -2.8839  -2.8732  -2.8527
    -2.8386  -2.8220  -2.5824  -2.4484  -2.0454  -1.7912  -1.7652  -1.5249
    -1.3023  -1.2417  -0.9052  -0.7871  -0.5897  -0.2082  -0.1484  -0.0855
     0.1079   0.1104   0.2856   0.4211   0.5516   0.6304   0.7712   0.9493
     0.9955   1.0513

     the Fermi energy is    -3.6907 ev

!    total energy              =   -3432.62910267 Ry
     estimated scf accuracy    <          7.6E-10 Ry
     smearing contrib. (-TS)   =       0.04483305 Ry
     internal energy E=F+TS    =   -3432.67393572 Ry

     The total energy is F=E-TS. E is the sum of the following terms:
     one-electron contribution =  -25288.14526287 Ry
     hartree contribution      =   12628.87584863 Ry
     xc contribution           =    -446.22475855 Ry
     ewald contribution        =    9754.25234829 Ry
     one-center paw contrib.   =    -266.56286610 Ry
     electrostatic embedding   =      -0.10053869 Ry
     cavitation energy         =       0.02105181 Ry
     PV energy                 =      -0.08061981 Ry
     correction to one-el term =     185.29086156 Ry

     WARNING: you are using the parabolic pbc correction;
              the potential shift above must be added to 
              band and Fermi energies.

     convergence has been achieved in  41 iterations

     negative rho (up, down):  1.466E-04 0.000E+00

     Forces acting on atoms (cartesian axes, Ry/au):

     atom    1 type  1   force =     0.00000000    0.00000000   -0.00030031
     atom    2 type  1   force =     0.00000000    0.00000000   -0.00146530
     atom    3 type  1   force =     0.00000000    0.00000000    0.00033644
     atom    4 type  1   force =     0.00000000    0.00000000   -0.00016518
     atom    5 type  2   force =     0.00012775    0.00000000    0.00045704
     atom    6 type  2   force =    -0.00012775    0.00000000    0.00045704
     atom    7 type  1   force =     0.00027457    0.00009472    0.00050925
     atom    8 type  1   force =    -0.00027457    0.00009472    0.00050925
     atom    9 type  2   force =     0.00000000    0.00000000   -0.00005078
     atom   10 type  2   force =     0.00000000    0.00000000   -0.00124032
     atom   11 type  1   force =     0.00027457   -0.00009472    0.00050925
     atom   12 type  1   force =    -0.00027457   -0.00009472    0.00050925
     atom   13 type  1   force =     0.00000000    0.00000000   -0.00011735
     atom   14 type  1   force =     0.00000000    0.00000000   -0.00004409
     atom   15 type  1   force =     0.00000000    0.00000000   -0.00000533
     atom   16 type  1   force =     0.00000000    0.00000000   -0.00034888
     atom   17 type  2   force =     0.00000000    0.00000000    0.00000000
     atom   18 type  2   force =     0.00000000    0.00000000    0.00000000
     atom   19 type  1   force =     0.00086418   -0.00014881    0.00000000
     atom   20 type  1   force =    -0.00086418   -0.00014881    0.00000000
     atom   21 type  2   force =     0.00016307    0.00000000    0.00000000
     atom   22 type  2   force =    -0.00016307    0.00000000    0.00000000
     atom   23 type  1   force =     0.00086418    0.00014881    0.00000000
     atom   24 type  1   force =    -0.00086418    0.00014881    0.00000000
     atom   25 type  1   force =     0.00000000    0.00000000    0.00000533
     atom   26 type  1   force =     0.00000000    0.00000000    0.00034888
     atom   27 type  1   force =     0.00000000    0.00000000    0.00011735
     atom   28 type  1   force =     0.00000000    0.00000000    0.00004409
     atom   29 type  2   force =     0.00012775    0.00000000   -0.00045704
     atom   30 type  2   force =    -0.00012775    0.00000000   -0.00045704
     atom   31 type  1   force =     0.00027457    0.00009472   -0.00050925
     atom   32 type  1   force =    -0.00027457    0.00009472   -0.00050925
     atom   33 type  2   force =     0.00000000    0.00000000    0.00005078
     atom   34 type  2   force =     0.00000000    0.00000000    0.00124032
     atom   35 type  1   force =     0.00027457   -0.00009472   -0.00050925
     atom   36 type  1   force =    -0.00027457   -0.00009472   -0.00050925
     atom   37 type  1   force =     0.00000000    0.00000000   -0.00033644
     atom   38 type  1   force =     0.00000000    0.00000000    0.00016518
     atom   39 type  1   force =     0.00000000    0.00000000    0.00030031
     atom   40 type  1   force =     0.00000000    0.00000000    0.00146530
     atom   41 type  3   force =     0.00000000    0.00066710    0.00110231
     atom   42 type  3   force =     0.00000000    0.00066710   -0.00110231
     atom   43 type  3   force =     0.00000000   -0.00066710    0.00110231
     atom   44 type  3   force =     0.00000000   -0.00066710   -0.00110231
     The non-local contrib.  to forces
     atom    1 type  1   force =     0.00000000    0.00000000    1.19861309
     atom    2 type  1   force =     0.00000000    0.00000000    1.26263561
     atom    3 type  1   force =     0.00000000    0.00000000   -1.45714445
     atom    4 type  1   force =     0.00000000    0.00000000    1.15308615
     atom    5 type  2   force =    -0.01686918    0.00000000   -0.02387195
     atom    6 type  2   force =     0.01686918    0.00000000   -0.02387195
     atom    7 type  1   force =     0.01850930   -0.00937626   -0.11732343
     atom    8 type  1   force =    -0.01850930   -0.00937626   -0.11732343
     atom    9 type  2   force =     0.00000000    0.00000000   -0.04544531
     atom   10 type  2   force =     0.00000000    0.00000000   -0.04589936
     atom   11 type  1   force =     0.01850930    0.00937626   -0.11732343
     atom   12 type  1   force =    -0.01850930    0.00937626   -0.11732343
     atom   13 type  1   force =     0.00000000    0.00000000    0.10358279
     atom   14 type  1   force =     0.00000000    0.00000000   -0.20803198
     atom   15 type  1   force =     0.00000000    0.00000000    0.14264899
     atom   16 type  1   force =     0.00000000    0.00000000    0.24062824
     atom   17 type  2   force =     0.00000000    0.00000000    0.00000000
     atom   18 type  2   force =     0.00000000    0.00000000    0.00000000
     atom   19 type  1   force =     0.01241752    0.04078668    0.00000000
     atom   20 type  1   force =    -0.01241752    0.04078668    0.00000000
     atom   21 type  2   force =    -0.00137703    0.00000000    0.00000000
     atom   22 type  2   force =     0.00137703    0.00000000    0.00000000
     atom   23 type  1   force =     0.01241752   -0.04078668    0.00000000
     atom   24 type  1   force =    -0.01241752   -0.04078668    0.00000000
     atom   25 type  1   force =     0.00000000    0.00000000   -0.14264899
     atom   26 type  1   force =     0.00000000    0.00000000   -0.24062824
     atom   27 type  1   force =     0.00000000    0.00000000   -0.10358279
     atom   28 type  1   force =     0.00000000    0.00000000    0.20803198
     atom   29 type  2   force =    -0.01686918    0.00000000    0.02387195
     atom   30 type  2   force =     0.01686918    0.00000000    0.02387195
     atom   31 type  1   force =     0.01850930   -0.00937626    0.11732343
     atom   32 type  1   force =    -0.01850930   -0.00937626    0.11732343
     atom   33 type  2   force =     0.00000000    0.00000000    0.04544531
     atom   34 type  2   force =     0.00000000    0.00000000    0.04589936
     atom   35 type  1   force =     0.01850930    0.00937626    0.11732343
     atom   36 type  1   force =    -0.01850930    0.00937626    0.11732343
     atom   37 type  1   force =     0.00000000    0.00000000    1.45714445
     atom   38 type  1   force =     0.00000000    0.00000000   -1.15308615
     atom   39 type  1   force =     0.00000000    0.00000000   -1.19861309
     atom   40 type  1   force =     0.00000000    0.00000000   -1.26263561
     atom   41 type  3   force =     0.00000000   -0.08600791    0.06645637
     atom   42 type  3   force =     0.00000000   -0.08600791   -0.06645637
     atom   43 type  3   force =     0.00000000    0.08600791    0.06645637
     atom   44 type  3   force =     0.00000000    0.08600791   -0.06645637
     The ionic contribution  to forces
     atom    1 type  1   force =    -0.00000000    0.00000018  -99.56484432
     atom    2 type  1   force =    -0.00000000    0.00000017 -100.81199931
     atom    3 type  1   force =    -0.00000000   -0.00000024  -88.43093649
     atom    4 type  1   force =     0.00000000   -0.00000036  -94.83197705
     atom    5 type  2   force =    -6.33100248   -0.00000270 -170.31813454
     atom    6 type  2   force =     6.33100248   -0.00000270 -170.31813454
     atom    7 type  1   force =    -0.73840843   -0.87496091  -62.03135928
     atom    8 type  1   force =     0.73840843   -0.87496091  -62.03135928
     atom    9 type  2   force =    -0.00000000    0.00000314 -169.47946175
     atom   10 type  2   force =    -0.00000000    0.00000292 -172.70571272
     atom   11 type  1   force =    -0.73840844    0.87496157  -62.03135662
     atom   12 type  1   force =     0.73840844    0.87496157  -62.03135662
     atom   13 type  1   force =    -0.00000000   -0.00000206  -39.79945678
     atom   14 type  1   force =    -0.00000000   -0.00000207  -36.42770137
     atom   15 type  1   force =    -0.00000000    0.00001011  -26.47209864
     atom   16 type  1   force =    -0.00000000    0.00000988  -27.30781658
     atom   17 type  2   force =    -0.00000000    0.00001301   -0.00043086
     atom   18 type  2   force =    -0.00000000    0.00001180   -0.00046328
     atom   19 type  1   force =    -0.20860740    1.23105973   -0.00007949
     atom   20 type  1   force =     0.20860740    1.23105973   -0.00007949
     atom   21 type  2   force =    -0.45443185    0.00011223   -0.00024227
     atom   22 type  2   force =     0.45443185    0.00011223   -0.00024227
     atom   23 type  1   force =    -0.20860586   -1.23120193   -0.00007949
     atom   24 type  1   force =     0.20860586   -1.23120193   -0.00007949
     atom   25 type  1   force =    -0.00000000    0.00001011   26.47190241
     atom   26 type  1   force =     0.00000000    0.00000988   27.30762963
     atom   27 type  1   force =    -0.00000000   -0.00000206   39.79973938
     atom   28 type  1   force =    -0.00000000   -0.00000207   36.42802511
     atom   29 type  2   force =    -6.33088783   -0.00000270  170.31842324
     atom   30 type  2   force =     6.33088783   -0.00000270  170.31842324
     atom   31 type  1   force =    -0.73840345   -0.87498591   62.03142959
     atom   32 type  1   force =     0.73840345   -0.87498591   62.03142959
     atom   33 type  2   force =    -0.00000000    0.00000314  169.47961676
     atom   34 type  2   force =    -0.00000000    0.00000292  172.70586216
     atom   35 type  1   force =    -0.73840346    0.87498657   62.03142693
     atom   36 type  1   force =     0.73840346    0.87498657   62.03142693
     atom   37 type  1   force =     0.00000000   -0.00000024   88.43089763
     atom   38 type  1   force =    -0.00000000   -0.00000036   94.83208661
     atom   39 type  1   force =    -0.00000000    0.00000018   99.56490764
     atom   40 type  1   force =    -0.00000000    0.00000017  100.81205837
     atom   41 type  3   force =    -0.00000000    2.32491481  -16.93576877
     atom   42 type  3   force =     0.00000000    2.32513592   16.93582741
     atom   43 type  3   force =    -0.00000000   -2.32491484  -16.93576874
     atom   44 type  3   force =    -0.00000000   -2.32513595   16.93582738
     The local contribution  to forces
     atom    1 type  1   force =     0.00000000    0.00000000   98.33976786
     atom    2 type  1   force =     0.00000000    0.00000000   99.44349624
     atom    3 type  1   force =    -0.00000000    0.00000000   90.06799863
     atom    4 type  1   force =    -0.00000000    0.00000000   93.62557182
     atom    5 type  2   force =     6.43162041   -0.00000000  170.37400719
     atom    6 type  2   force =    -6.43162041    0.00000000  170.37400719
     atom    7 type  1   force =     0.74525236    0.89916561   62.14116066
     atom    8 type  1   force =    -0.74525236    0.89916561   62.14116066
     atom    9 type  2   force =    -0.00000000    0.00000000  169.53284363
     atom   10 type  2   force =     0.00000000    0.00000000  172.64615386
     atom   11 type  1   force =     0.74525236   -0.89916561   62.14116066
     atom   12 type  1   force =    -0.74525236   -0.89916561   62.14116066
     atom   13 type  1   force =    -0.00000000    0.00000000   39.71005963
     atom   14 type  1   force =    -0.00000000   -0.00000000   36.62740116
     atom   15 type  1   force =     0.00000000    0.00000000   26.33165622
     atom   16 type  1   force =     0.00000000    0.00000000   27.06335193
     atom   17 type  2   force =    -0.00000000    0.00000000   -0.00588969
     atom   18 type  2   force =     0.00000000    0.00000000   -0.00580887
     atom   19 type  1   force =     0.19984639   -1.27104374   -0.00245135
     atom   20 type  1   force =    -0.19984639   -1.27104374   -0.00245135
     atom   21 type  2   force =     0.46241580   -0.00000000   -0.00603476
     atom   22 type  2   force =    -0.46241580    0.00000000   -0.00603476
     atom   23 type  1   force =     0.19984488    1.27068580   -0.00245135
     atom   24 type  1   force =    -0.19984488    1.27068580   -0.00245135
     atom   25 type  1   force =    -0.00000000    0.00000000  -26.33343950
     atom   26 type  1   force =    -0.00000000    0.00000000  -27.06515117
     atom   27 type  1   force =    -0.00000000    0.00000000  -39.71186753
     atom   28 type  1   force =     0.00000000    0.00000000  -36.62913313
     atom   29 type  2   force =     6.43165878    0.00000000 -170.38005406
     atom   30 type  2   force =    -6.43165878   -0.00000000 -170.38005406
     atom   31 type  1   force =     0.74526082    0.89920037  -62.14359859
     atom   32 type  1   force =    -0.74526082    0.89920037  -62.14359859
     atom   33 type  2   force =    -0.00000000    0.00000000 -169.53858995
     atom   34 type  2   force =     0.00000000    0.00000000 -172.65193311
     atom   35 type  1   force =     0.74526082   -0.89920037  -62.14359859
     atom   36 type  1   force =    -0.74526082   -0.89920037  -62.14359859
     atom   37 type  1   force =    -0.00000000    0.00000000  -90.07166922
     atom   38 type  1   force =     0.00000000    0.00000000  -93.62938766
     atom   39 type  1   force =    -0.00000000   -0.00000000  -98.34119262
     atom   40 type  1   force =     0.00000000    0.00000000  -99.44487573
     atom   41 type  3   force =    -0.00000000   -2.22778653   16.92493439
     atom   42 type  3   force =    -0.00000000   -2.22778653  -16.92493439
     atom   43 type  3   force =     0.00000000    2.22778653   16.92493439
     atom   44 type  3   force =     0.00000000    2.22778653  -16.92493439
     The core correction contribution to forces
     atom    1 type  1   force =    -0.00000000    0.00000000   -0.01054618
     atom    2 type  1   force =     0.00000000    0.00000000   -0.01068324
     atom    3 type  1   force =     0.00000000    0.00000000    0.01343325
     atom    4 type  1   force =     0.00000000   -0.00000000   -0.01159256
     atom    5 type  2   force =     0.00000000    0.00000000    0.00000000
     atom    6 type  2   force =     0.00000000    0.00000000    0.00000000
     atom    7 type  1   force =    -0.00017988   -0.00040139    0.00119201
     atom    8 type  1   force =     0.00017988   -0.00040139    0.00119201
     atom    9 type  2   force =     0.00000000    0.00000000    0.00000000
     atom   10 type  2   force =     0.00000000    0.00000000    0.00000000
     atom   11 type  1   force =    -0.00017988    0.00040139    0.00119201
     atom   12 type  1   force =     0.00017988    0.00040139    0.00119201
     atom   13 type  1   force =    -0.00000000   -0.00000000   -0.00111957
     atom   14 type  1   force =    -0.00000000    0.00000000    0.00239847
     atom   15 type  1   force =    -0.00000000    0.00000000   -0.00183728
     atom   16 type  1   force =     0.00000000   -0.00000000   -0.00267891
     atom   17 type  2   force =     0.00000000    0.00000000    0.00000000
     atom   18 type  2   force =     0.00000000    0.00000000    0.00000000
     atom   19 type  1   force =    -0.00020456   -0.00011674   -0.00000200
     atom   20 type  1   force =     0.00020456   -0.00011674   -0.00000200
     atom   21 type  2   force =     0.00000000    0.00000000    0.00000000
     atom   22 type  2   force =     0.00000000    0.00000000    0.00000000
     atom   23 type  1   force =    -0.00020457    0.00011618   -0.00000200
     atom   24 type  1   force =     0.00020457    0.00011618   -0.00000200
     atom   25 type  1   force =    -0.00000000    0.00000000    0.00183521
     atom   26 type  1   force =    -0.00000000   -0.00000000    0.00267681
     atom   27 type  1   force =    -0.00000000   -0.00000000    0.00111736
     atom   28 type  1   force =     0.00000000    0.00000000   -0.00240077
     atom   29 type  2   force =     0.00000000    0.00000000    0.00000000
     atom   30 type  2   force =     0.00000000    0.00000000    0.00000000
     atom   31 type  1   force =    -0.00017980   -0.00040131   -0.00119349
     atom   32 type  1   force =     0.00017980   -0.00040131   -0.00119349
     atom   33 type  2   force =     0.00000000    0.00000000    0.00000000
     atom   34 type  2   force =     0.00000000    0.00000000    0.00000000
     atom   35 type  1   force =    -0.00017980    0.00040131   -0.00119349
     atom   36 type  1   force =     0.00017980    0.00040131   -0.00119349
     atom   37 type  1   force =     0.00000000    0.00000000   -0.01343699
     atom   38 type  1   force =     0.00000000    0.00000000    0.01158883
     atom   39 type  1   force =     0.00000000    0.00000000    0.01054418
     atom   40 type  1   force =    -0.00000000    0.00000000    0.01068133
     atom   41 type  3   force =     0.00000000    0.00000000    0.00000000
     atom   42 type  3   force =     0.00000000    0.00000000    0.00000000
     atom   43 type  3   force =     0.00000000    0.00000000    0.00000000
     atom   44 type  3   force =     0.00000000    0.00000000    0.00000000
     The Hubbard contrib.    to forces
     atom    1 type  1   force =     0.00000000    0.00000000    0.00000000
     atom    2 type  1   force =     0.00000000    0.00000000    0.00000000
     atom    3 type  1   force =     0.00000000    0.00000000    0.00000000
     atom    4 type  1   force =     0.00000000    0.00000000    0.00000000
     atom    5 type  2   force =     0.00000000    0.00000000    0.00000000
     atom    6 type  2   force =     0.00000000    0.00000000    0.00000000
     atom    7 type  1   force =     0.00000000    0.00000000    0.00000000
     atom    8 type  1   force =     0.00000000    0.00000000    0.00000000
     atom    9 type  2   force =     0.00000000    0.00000000    0.00000000
     atom   10 type  2   force =     0.00000000    0.00000000    0.00000000
     atom   11 type  1   force =     0.00000000    0.00000000    0.00000000
     atom   12 type  1   force =     0.00000000    0.00000000    0.00000000
     atom   13 type  1   force =     0.00000000    0.00000000    0.00000000
     atom   14 type  1   force =     0.00000000    0.00000000    0.00000000
     atom   15 type  1   force =     0.00000000    0.00000000    0.00000000
     atom   16 type  1   force =     0.00000000    0.00000000    0.00000000
     atom   17 type  2   force =     0.00000000    0.00000000    0.00000000
     atom   18 type  2   force =     0.00000000    0.00000000    0.00000000
     atom   19 type  1   force =     0.00000000    0.00000000    0.00000000
     atom   20 type  1   force =     0.00000000    0.00000000    0.00000000
     atom   21 type  2   force =     0.00000000    0.00000000    0.00000000
     atom   22 type  2   force =     0.00000000    0.00000000    0.00000000
     atom   23 type  1   force =     0.00000000    0.00000000    0.00000000
     atom   24 type  1   force =     0.00000000    0.00000000    0.00000000
     atom   25 type  1   force =     0.00000000    0.00000000    0.00000000
     atom   26 type  1   force =     0.00000000    0.00000000    0.00000000
     atom   27 type  1   force =     0.00000000    0.00000000    0.00000000
     atom   28 type  1   force =     0.00000000    0.00000000    0.00000000
     atom   29 type  2   force =     0.00000000    0.00000000    0.00000000
     atom   30 type  2   force =     0.00000000    0.00000000    0.00000000
     atom   31 type  1   force =     0.00000000    0.00000000    0.00000000
     atom   32 type  1   force =     0.00000000    0.00000000    0.00000000
     atom   33 type  2   force =     0.00000000    0.00000000    0.00000000
     atom   34 type  2   force =     0.00000000    0.00000000    0.00000000
     atom   35 type  1   force =     0.00000000    0.00000000    0.00000000
     atom   36 type  1   force =     0.00000000    0.00000000    0.00000000
     atom   37 type  1   force =     0.00000000    0.00000000    0.00000000
     atom   38 type  1   force =     0.00000000    0.00000000    0.00000000
     atom   39 type  1   force =     0.00000000    0.00000000    0.00000000
     atom   40 type  1   force =     0.00000000    0.00000000    0.00000000
     atom   41 type  3   force =     0.00000000    0.00000000    0.00000000
     atom   42 type  3   force =     0.00000000    0.00000000    0.00000000
     atom   43 type  3   force =     0.00000000    0.00000000    0.00000000
     atom   44 type  3   force =     0.00000000    0.00000000    0.00000000
     The SCF correction term to forces
     atom    1 type  1   force =     0.00000000   -0.00000001    0.00000616
     atom    2 type  1   force =    -0.00000000   -0.00000001    0.00000802
     atom    3 type  1   force =     0.00000000    0.00000001    0.00002577
     atom    4 type  1   force =    -0.00000000    0.00000001    0.00000620
     atom    5 type  2   force =     0.00001986    0.00000005    0.00001755
     atom    6 type  2   force =    -0.00001986    0.00000005    0.00001755
     atom    7 type  1   force =     0.00001176   -0.00000375    0.00000590
     atom    8 type  1   force =    -0.00001176   -0.00000375    0.00000590
     atom    9 type  2   force =     0.00000000   -0.00000005    0.00003114
     atom   10 type  2   force =    -0.00000000   -0.00000005    0.00000412
     atom   11 type  1   force =     0.00001176    0.00000373    0.00000590
     atom   12 type  1   force =    -0.00001176    0.00000373    0.00000590
     atom   13 type  1   force =     0.00000000    0.00000002    0.00001494
     atom   14 type  1   force =    -0.00000000    0.00000002   -0.00000619
     atom   15 type  1   force =    -0.00000000   -0.00000002    0.00001041
     atom   16 type  1   force =     0.00000000   -0.00000002    0.00000021
     atom   17 type  2   force =    -0.00000000    0.00000007    0.00000040
     atom   18 type  2   force =     0.00000000    0.00000007    0.00000048
     atom   19 type  1   force =    -0.00001196   -0.00000220    0.00000010
     atom   20 type  1   force =     0.00001196   -0.00000220    0.00000010
     atom   21 type  2   force =    -0.00000189   -0.00000007    0.00000022
     atom   22 type  2   force =     0.00000189   -0.00000007    0.00000022
     atom   23 type  1   force =    -0.00001196    0.00000222    0.00000010
     atom   24 type  1   force =     0.00001196    0.00000222    0.00000010
     atom   25 type  1   force =    -0.00000000   -0.00000002   -0.00001117
     atom   26 type  1   force =     0.00000000   -0.00000002   -0.00000094
     atom   27 type  1   force =    -0.00000000    0.00000002   -0.00001666
     atom   28 type  1   force =     0.00000000    0.00000002    0.00000455
     atom   29 type  2   force =     0.00001999    0.00000005   -0.00002550
     atom   30 type  2   force =    -0.00001999    0.00000005   -0.00002550
     atom   31 type  1   force =     0.00001182   -0.00000394   -0.00000885
     atom   32 type  1   force =    -0.00001182   -0.00000394   -0.00000885
     atom   33 type  2   force =    -0.00000000   -0.00000005   -0.00003951
     atom   34 type  2   force =     0.00000000   -0.00000005   -0.00001247
     atom   35 type  1   force =     0.00001182    0.00000393   -0.00000884
     atom   36 type  1   force =    -0.00001182    0.00000393   -0.00000884
     atom   37 type  1   force =    -0.00000000    0.00000001   -0.00002761
     atom   38 type  1   force =     0.00000000    0.00000001   -0.00000848
     atom   39 type  1   force =    -0.00000000   -0.00000001   -0.00000722
     atom   40 type  1   force =     0.00000000   -0.00000001   -0.00000902
     atom   41 type  3   force =     0.00000000    0.00000084    0.00000140
     atom   42 type  3   force =    -0.00000000    0.00000088   -0.00000144
     atom   43 type  3   force =     0.00000000   -0.00000084    0.00000140
     atom   44 type  3   force =    -0.00000000   -0.00000088   -0.00000144

     Total force =     0.004640     Total SCF correction =     0.000105

     BFGS Geometry Optimization
     Energy error            =      0.0E+00 Ry
     Gradient error          =      1.5E-03 Ry/Bohr

     number of scf cycles    =   1
     number of bfgs steps    =   0

     energy             new  =   -3432.6291026712 Ry

     new trust radius        =       0.0014652973 bohr
     new conv_thr            =       0.0000000010 Ry


ATOMIC_POSITIONS (crystal)
O             0.0000000000        0.5000000000        0.2741386355
O             0.5000000000        0.5000000000        0.2729312637
O             0.0000000000        0.0000000000        0.2898343787
O             0.5000000000        0.0000000000        0.3074802380
Ru            0.2614666893        0.0000000000        0.3582348119
Ru            0.7385333107        0.0000000000        0.3582348119
O             0.2500878726        0.3104932620        0.3585367230
O             0.7499121274        0.3104932620        0.3585367230
Ru            0.0000000000        0.5000000000        0.3536939622
Ru            0.5000000000        0.5000000000        0.3508952568
O             0.2500878726        0.6895067380        0.3585367230
O             0.7499121274        0.6895067380        0.3585367230
O             0.0000000000        0.0000000000        0.4111340830
O             0.5000000000        0.0000000000        0.4122810915
O             0.0000000000        0.5000000000        0.4450327601
O             0.5000000000        0.5000000000        0.4448418125
Ru            0.0000000000        0.0000000000        0.5000010000
Ru            0.5000000000        0.0000000000        0.5000010000
O             0.2487960860        0.1879960972        0.5000010000
O             0.7512039140        0.1879960972        0.5000010000
Ru            0.2513963623        0.5000000000        0.5000010000
Ru            0.7486036377        0.5000000000        0.5000010000
O             0.2487960860        0.8120049028        0.5000010000
O             0.7512039140        0.8120049028        0.5000010000
O             0.0000000000        0.5000000000        0.5549682399
O             0.5000000000        0.5000000000        0.5551591875
O             0.0000000000        0.0000000000        0.5888669170
O             0.5000000000        0.0000000000        0.5877199085
Ru            0.2614666893        0.0000000000        0.6417661881
Ru            0.7385333107        0.0000000000        0.6417661881
O             0.2500878726        0.3104932620        0.6414642770
O             0.7499121274        0.3104932620        0.6414642770
Ru            0.0000000000        0.5000000000        0.6463070378
Ru            0.5000000000        0.5000000000        0.6491057432
O             0.2500878726        0.6895067380        0.6414642770
O             0.7499121274        0.6895067380        0.6414642770
O             0.0000000000        0.0000000000        0.7101676213
O             0.5000000000        0.0000000000        0.6925217620
O             0.0000000000        0.5000000000        0.7258623645
O             0.5000000000        0.5000000000        0.7270697363
H             0.0000000000        0.1289288867        0.2626366291
H             0.0000000000        0.1289288867        0.7373633709
H             0.0000000000        0.8710711133        0.2626366291
H             0.0000000000        0.8710711133        0.7373633709



     Writing config-only to output data dir /storage/home/mgm6007/ixd4/Maria/Strain2_Files/RuO2-110-0-24/RuO2-110-0-24.save/
     NEW-OLD atomic charge density approx. for the potential

     Check: negative core charge=   -0.000001

     negative rho (up, down):  1.468E-04 0.000E+00

     add environment contribution to local potential
     Polarization accuracy = 6.2E-12, # of iterations =  40

     total cpu time spent up to now is     7515.0 secs

     per-process dynamical memory:   204.0 Mb

     Self-consistent Calculation

     iteration #  1     ecut=    50.00 Ry     beta= 0.70
     Davidson diagonalization with overlap
     ethr =  1.00E-06,  avg # of iterations =  2.0

     Threshold (ethr) on eigenvalues was too large:
     Diagonalizing with lowered threshold

     Davidson diagonalization with overlap
     ethr =  9.15E-10,  avg # of iterations =  4.0

     negative rho (up, down):  1.597E-04 0.000E+00

     add environment contribution to local potential
     Polarization accuracy = 5.8E-12, # of iterations =  40

     total cpu time spent up to now is     7679.0 secs

     total energy              =   -3432.62912246 Ry
     estimated scf accuracy    <       0.00000348 Ry
     electrostatic embedding   =      -0.10065698 Ry
     cavitation energy         =       0.02105126 Ry
     PV energy                 =      -0.08061662 Ry
     correction to one-el term =     185.26573048 Ry

     iteration #  2     ecut=    50.00 Ry     beta= 0.70
     Davidson diagonalization with overlap
     ethr =  9.55E-10,  avg # of iterations =  2.0

     negative rho (up, down):  1.628E-04 0.000E+00

     add environment contribution to local potential
     Polarization accuracy = 6.2E-12, # of iterations =  39

     total cpu time spent up to now is     7840.3 secs

     total energy              =   -3432.62912172 Ry
     estimated scf accuracy    <       0.00000635 Ry
     electrostatic embedding   =      -0.10058216 Ry
     cavitation energy         =       0.02105212 Ry
     PV energy                 =      -0.08061798 Ry
     correction to one-el term =     185.28005847 Ry

     iteration #  3     ecut=    50.00 Ry     beta= 0.70
     Davidson diagonalization with overlap
     ethr =  9.55E-10,  avg # of iterations =  1.0

     negative rho (up, down):  1.694E-04 0.000E+00

     add environment contribution to local potential
     Polarization accuracy = 5.6E-12, # of iterations =  40

     total cpu time spent up to now is     8003.0 secs

     total energy              =   -3432.62912186 Ry
     estimated scf accuracy    <       0.00000054 Ry
     electrostatic embedding   =      -0.10056393 Ry
     cavitation energy         =       0.02105219 Ry
     PV energy                 =      -0.08061844 Ry
     correction to one-el term =     185.28219978 Ry

     iteration #  4     ecut=    50.00 Ry     beta= 0.70
     Davidson diagonalization with overlap
     ethr =  1.49E-10,  avg # of iterations =  2.0

     negative rho (up, down):  1.728E-04 0.000E+00

     add environment contribution to local potential
     Polarization accuracy = 5.5E-12, # of iterations =  40

     total cpu time spent up to now is     8174.9 secs

     total energy              =   -3432.62912160 Ry
     estimated scf accuracy    <       0.00000038 Ry
     electrostatic embedding   =      -0.10052362 Ry
     cavitation energy         =       0.02105252 Ry
     PV energy                 =      -0.08061936 Ry
     correction to one-el term =     185.28771601 Ry

     iteration #  5     ecut=    50.00 Ry     beta= 0.70
     Davidson diagonalization with overlap
     ethr =  1.04E-10,  avg # of iterations =  2.0

     negative rho (up, down):  1.734E-04 0.000E+00

     add environment contribution to local potential
     Polarization accuracy = 5.5E-12, # of iterations =  40

     total cpu time spent up to now is     8329.6 secs

     total energy              =   -3432.62912148 Ry
     estimated scf accuracy    <       0.00000013 Ry
     electrostatic embedding   =      -0.10049816 Ry
     cavitation energy         =       0.02105277 Ry
     PV energy                 =      -0.08061987 Ry
     correction to one-el term =     185.29098320 Ry

     iteration #  6     ecut=    50.00 Ry     beta= 0.70
     Davidson diagonalization with overlap
     ethr =  3.57E-11,  avg # of iterations =  2.0

     negative rho (up, down):  1.726E-04 0.000E+00

     add environment contribution to local potential
     Polarization accuracy = 5.5E-12, # of iterations =  40

     total cpu time spent up to now is     8487.1 secs

     total energy              =   -3432.62912146 Ry
     estimated scf accuracy    <       0.00000004 Ry
     electrostatic embedding   =      -0.10048623 Ry
     cavitation energy         =       0.02105288 Ry
     PV energy                 =      -0.08062008 Ry
     correction to one-el term =     185.29223628 Ry

     iteration #  7     ecut=    50.00 Ry     beta= 0.70
     Davidson diagonalization with overlap
     ethr =  1.08E-11,  avg # of iterations =  2.0

     negative rho (up, down):  1.701E-04 0.000E+00

     add environment contribution to local potential
     Polarization accuracy = 5.4E-12, # of iterations =  40

     total cpu time spent up to now is     8648.2 secs

     total energy              =   -3432.62912148 Ry
     estimated scf accuracy    <       0.00000010 Ry
     electrostatic embedding   =      -0.10046482 Ry
     cavitation energy         =       0.02105303 Ry
     PV energy                 =      -0.08062051 Ry
     correction to one-el term =     185.29379530 Ry

     iteration #  8     ecut=    50.00 Ry     beta= 0.70
     Davidson diagonalization with overlap
     ethr =  1.08E-11,  avg # of iterations =  2.0

     negative rho (up, down):  1.634E-04 0.000E+00

     add environment contribution to local potential
     Polarization accuracy = 5.3E-12, # of iterations =  40

     total cpu time spent up to now is     8820.3 secs

     total energy              =   -3432.62912154 Ry
     estimated scf accuracy    <       0.00000005 Ry
     electrostatic embedding   =      -0.10044216 Ry
     cavitation energy         =       0.02105319 Ry
     PV energy                 =      -0.08062092 Ry
     correction to one-el term =     185.29529040 Ry

     iteration #  9     ecut=    50.00 Ry     beta= 0.70
     Davidson diagonalization with overlap
     ethr =  1.08E-11,  avg # of iterations =  2.0

     negative rho (up, down):  1.574E-04 0.000E+00

     add environment contribution to local potential
     Polarization accuracy = 5.4E-12, # of iterations =  40

     total cpu time spent up to now is     8978.9 secs

     total energy              =   -3432.62912159 Ry
     estimated scf accuracy    <       0.00000004 Ry
     electrostatic embedding   =      -0.10040974 Ry
     cavitation energy         =       0.02105337 Ry
     PV energy                 =      -0.08062151 Ry
     correction to one-el term =     185.29736814 Ry

     iteration # 10     ecut=    50.00 Ry     beta= 0.70
     Davidson diagonalization with overlap
     ethr =  9.96E-12,  avg # of iterations =  2.0

     negative rho (up, down):  1.534E-04 0.000E+00

     add environment contribution to local potential
     Polarization accuracy = 8.3E-12, # of iterations =  39

     total cpu time spent up to now is     9150.8 secs

     total energy              =   -3432.62912162 Ry
     estimated scf accuracy    <       0.00000002 Ry
     electrostatic embedding   =      -0.10039354 Ry
     cavitation energy         =       0.02105343 Ry
     PV energy                 =      -0.08062181 Ry
     correction to one-el term =     185.29831554 Ry

     iteration # 11     ecut=    50.00 Ry     beta= 0.70
     Davidson diagonalization with overlap
     ethr =  5.04E-12,  avg # of iterations =  2.0

     negative rho (up, down):  1.485E-04 0.000E+00

     add environment contribution to local potential
     Polarization accuracy = 5.4E-12, # of iterations =  40

     total cpu time spent up to now is     9296.2 secs

     total energy              =   -3432.62912164 Ry
     estimated scf accuracy    <          4.7E-09 Ry
     electrostatic embedding   =      -0.10038845 Ry
     cavitation energy         =       0.02105343 Ry
     PV energy                 =      -0.08062189 Ry
     correction to one-el term =     185.29849989 Ry

     iteration # 12     ecut=    50.00 Ry     beta= 0.70
     Davidson diagonalization with overlap
     ethr =  1.28E-12,  avg # of iterations =  2.0

     negative rho (up, down):  1.466E-04 0.000E+00

     the potential shift due to the Gaussian-smeared nuclei is    -1.3223 ev

     total cpu time spent up to now is     9456.2 secs

     End of self-consistent calculation

          k = 0.2500 0.2666 0.0000 ( 35123 PWs)   bands (ev):

   -77.9613 -77.9545 -77.9493 -77.9426 -77.2633 -77.2570 -77.2518 -77.2455
   -77.0912 -77.0642 -77.0601 -77.0364 -48.4715 -48.4595 -48.3433 -48.3314
   -47.9760 -47.9640 -47.8755 -47.8634 -47.6015 -47.5897 -47.5634 -47.5515
   -47.5285 -47.5169 -47.5150 -47.5032 -47.3732 -47.3688 -47.3114 -47.2876
   -47.2793 -47.2584 -47.1778 -47.1663 -47.1325 -47.1104 -47.0986 -47.0920
   -47.0807 -47.0058 -46.9962 -46.9209 -46.9091 -46.8832 -46.8695 -46.8644
   -26.0121 -25.9956 -23.7080 -23.5515 -23.4011 -23.2494 -23.1159 -23.0658
   -22.9901 -22.8918 -22.5669 -22.5457 -22.5324 -22.3952 -22.3493 -22.3414
   -22.2123 -22.1442 -22.1137 -22.1050 -22.0352 -21.9292 -21.7283 -21.6146
   -21.6099 -21.4500 -21.3862 -21.3087 -13.5686 -13.5523 -11.8737 -11.8412
   -11.8279 -11.6269 -11.6047 -11.2667 -11.2149 -11.1025 -10.9932 -10.9611
   -10.9521 -10.8750 -10.8594 -10.7858 -10.6843 -10.6522 -10.5885 -10.4674
   -10.3964 -10.3738 -10.2983 -10.2665 -10.0501  -9.9984  -9.9323  -9.8278
    -9.7967  -9.6720  -9.6576  -9.4076  -9.3996  -9.3015  -9.2036  -9.1140
    -9.1078  -8.9576  -8.9013  -8.8786  -8.8374  -8.7398  -8.6808  -8.6285
    -8.5112  -8.5008  -8.3956  -8.2465  -8.1873  -8.1756  -8.0299  -7.9827
    -7.9288  -7.8986  -7.8837  -7.8753  -7.7849  -7.7309  -7.6958  -7.5761
    -7.5710  -7.5231  -7.4060  -7.3659  -7.3132  -7.2246  -7.1521  -7.0024
    -6.9244  -6.7556  -6.7400  -6.7275  -6.6437  -6.5220  -6.4312  -6.4189
    -6.3320  -6.2381  -6.1826  -6.0896  -6.0686  -6.0134  -5.9502  -5.7949
    -4.9691  -4.9525  -4.8133  -4.6571  -4.6030  -4.5974  -4.5042  -4.4482
    -4.4432  -4.3869  -4.3783  -4.3215  -4.2827  -4.2136  -4.1368  -4.1214
    -4.1089  -3.9987  -3.9459  -3.8370  -3.8198  -3.7362  -3.6804  -3.5048
    -3.4497  -3.3481  -3.2717  -3.2154  -3.0606  -2.8858  -2.8752  -2.8547
    -2.8403  -2.8241  -2.5843  -2.4504  -2.0464  -1.7929  -1.7670  -1.5260
    -1.3044  -1.2433  -0.9061  -0.7890  -0.5907  -0.2104  -0.1507  -0.0879
     0.1057   0.1075   0.2836   0.4182   0.5499   0.6287   0.7678   0.9470
     0.9932   1.0483

     the Fermi energy is    -3.6924 ev

[...]
     atom   40 type  1   force =     0.00000000    0.00000017  100.81882965
     atom   41 type  3   force =    -0.00000000    2.32366257  -16.94555583
     atom   42 type  3   force =    -0.00000000    2.32388331   16.94561248
     atom   43 type  3   force =     0.00000000   -2.32366260  -16.94555580
     atom   44 type  3   force =     0.00000000   -2.32388334   16.94561245
     The local contribution  to forces
     atom    1 type  1   force =    -0.00000000    0.00000000   98.35353446
     atom    2 type  1   force =     0.00000000    0.00000000   99.44963927
     atom    3 type  1   force =    -0.00000000    0.00000000   90.10500895
     atom    4 type  1   force =     0.00000000    0.00000000   93.64130797
     atom    5 type  2   force =     6.39665641   -0.00000000  170.23328578
     atom    6 type  2   force =    -6.39665641    0.00000000  170.23328578
     atom    7 type  1   force =     0.75101775    0.88531853   62.15942241
     atom    8 type  1   force =    -0.75101775    0.88531853   62.15942241
     atom    9 type  2   force =    -0.00000000    0.00000000  169.47925381
     atom   10 type  2   force =     0.00000000    0.00000000  173.17995891
     atom   11 type  1   force =     0.75101775   -0.88531853   62.15942241
     atom   12 type  1   force =    -0.75101775   -0.88531853   62.15942241
     atom   13 type  1   force =    -0.00000000    0.00000000   39.69600180
     atom   14 type  1   force =     0.00000000    0.00000000   36.62672980
     atom   15 type  1   force =     0.00000000    0.00000000   26.29446646
     atom   16 type  1   force =     0.00000000    0.00000000   27.17624731
     atom   17 type  2   force =    -0.00000000    0.00000000   -0.00588628
     atom   18 type  2   force =     0.00000000    0.00000000   -0.00580767
     atom   19 type  1   force =     0.24195980   -1.30119653   -0.00245106
     atom   20 type  1   force =    -0.24195980   -1.30119653   -0.00245106
     atom   21 type  2   force =     0.45972526    0.00000000   -0.00603530
     atom   22 type  2   force =    -0.45972526    0.00000000   -0.00603530
     atom   23 type  1   force =     0.24195853    1.30083849   -0.00245106
     atom   24 type  1   force =    -0.24195853    1.30083849   -0.00245106
     atom   25 type  1   force =     0.00000000    0.00000000  -26.29625195
     atom   26 type  1   force =     0.00000000    0.00000000  -27.17804600
     atom   27 type  1   force =    -0.00000000    0.00000000  -39.69780935
     atom   28 type  1   force =     0.00000000    0.00000000  -36.62846149
     atom   29 type  2   force =     6.39669331   -0.00000000 -170.23933302
     atom   30 type  2   force =    -6.39669331    0.00000000 -170.23933302
     atom   31 type  1   force =     0.75102713    0.88535496  -62.16186002
     atom   32 type  1   force =    -0.75102713    0.88535496  -62.16186002
     atom   33 type  2   force =    -0.00000000    0.00000000 -169.48500154
     atom   34 type  2   force =    -0.00000000    0.00000000 -173.18573739
     atom   35 type  1   force =     0.75102713   -0.88535496  -62.16186002
     atom   36 type  1   force =    -0.75102713   -0.88535496  -62.16186002
     atom   37 type  1   force =    -0.00000000    0.00000000  -90.10868807
     atom   38 type  1   force =     0.00000000   -0.00000000  -93.64512328
     atom   39 type  1   force =     0.00000000    0.00000000  -98.35496000
     atom   40 type  1   force =     0.00000000    0.00000000  -99.45101674
     atom   41 type  3   force =     0.00000000   -2.22681049   16.93342828
     atom   42 type  3   force =    -0.00000000   -2.22681049  -16.93342828
     atom   43 type  3   force =    -0.00000000    2.22681049   16.93342828
     atom   44 type  3   force =    -0.00000000    2.22681049  -16.93342828
     The core correction contribution to forces
     atom    1 type  1   force =    -0.00000000   -0.00000000   -0.01057376
     atom    2 type  1   force =    -0.00000000   -0.00000000   -0.01070725
     atom    3 type  1   force =     0.00000000    0.00000000    0.01339283
     atom    4 type  1   force =     0.00000000    0.00000000   -0.01161498
     atom    5 type  2   force =     0.00000000    0.00000000    0.00000000
     atom    6 type  2   force =     0.00000000    0.00000000    0.00000000
     atom    7 type  1   force =    -0.00017625   -0.00039952    0.00122465
     atom    8 type  1   force =     0.00017625   -0.00039952    0.00122465
     atom    9 type  2   force =     0.00000000    0.00000000    0.00000000
     atom   10 type  2   force =     0.00000000    0.00000000    0.00000000
     atom   11 type  1   force =    -0.00017625    0.00039952    0.00122465
     atom   12 type  1   force =     0.00017625    0.00039952    0.00122465
     atom   13 type  1   force =     0.00000000    0.00000000   -0.00115672
     atom   14 type  1   force =     0.00000000    0.00000000    0.00238315
     atom   15 type  1   force =     0.00000000    0.00000000   -0.00177727
     atom   16 type  1   force =    -0.00000000    0.00000000   -0.00278290
     atom   17 type  2   force =     0.00000000    0.00000000    0.00000000
     atom   18 type  2   force =     0.00000000    0.00000000    0.00000000
     atom   19 type  1   force =    -0.00021329   -0.00011894   -0.00000200
     atom   20 type  1   force =     0.00021329   -0.00011894   -0.00000200
     atom   21 type  2   force =     0.00000000    0.00000000    0.00000000
     atom   22 type  2   force =     0.00000000    0.00000000    0.00000000
     atom   23 type  1   force =    -0.00021330    0.00011837   -0.00000200
     atom   24 type  1   force =     0.00021330    0.00011837   -0.00000200
     atom   25 type  1   force =     0.00000000   -0.00000000    0.00177520
     atom   26 type  1   force =    -0.00000000   -0.00000000    0.00278079
     atom   27 type  1   force =     0.00000000   -0.00000000    0.00115450
     atom   28 type  1   force =     0.00000000   -0.00000000   -0.00238545
     atom   29 type  2   force =     0.00000000    0.00000000    0.00000000
     atom   30 type  2   force =     0.00000000    0.00000000    0.00000000
     atom   31 type  1   force =    -0.00017617   -0.00039943   -0.00122613
     atom   32 type  1   force =     0.00017617   -0.00039943   -0.00122613
     atom   33 type  2   force =     0.00000000    0.00000000    0.00000000
     atom   34 type  2   force =     0.00000000    0.00000000    0.00000000
     atom   35 type  1   force =    -0.00017617    0.00039943   -0.00122613
     atom   36 type  1   force =     0.00017617    0.00039943   -0.00122613
     atom   37 type  1   force =    -0.00000000    0.00000000   -0.01339656
     atom   38 type  1   force =    -0.00000000    0.00000000    0.01161123
     atom   39 type  1   force =    -0.00000000    0.00000000    0.01057174
     atom   40 type  1   force =     0.00000000   -0.00000000    0.01070536
     atom   41 type  3   force =     0.00000000    0.00000000    0.00000000
     atom   42 type  3   force =     0.00000000    0.00000000    0.00000000
     atom   43 type  3   force =     0.00000000    0.00000000    0.00000000
     atom   44 type  3   force =     0.00000000    0.00000000    0.00000000
     The Hubbard contrib.    to forces
     atom    1 type  1   force =     0.00000000    0.00000000    0.00000000
     atom    2 type  1   force =     0.00000000    0.00000000    0.00000000
     atom    3 type  1   force =     0.00000000    0.00000000    0.00000000
     atom    4 type  1   force =     0.00000000    0.00000000    0.00000000
     atom    5 type  2   force =     0.00000000    0.00000000    0.00000000
     atom    6 type  2   force =     0.00000000    0.00000000    0.00000000
     atom    7 type  1   force =     0.00000000    0.00000000    0.00000000
     atom    8 type  1   force =     0.00000000    0.00000000    0.00000000
     atom    9 type  2   force =     0.00000000    0.00000000    0.00000000
     atom   10 type  2   force =     0.00000000    0.00000000    0.00000000
     atom   11 type  1   force =     0.00000000    0.00000000    0.00000000
     atom   12 type  1   force =     0.00000000    0.00000000    0.00000000
     atom   13 type  1   force =     0.00000000    0.00000000    0.00000000
     atom   14 type  1   force =     0.00000000    0.00000000    0.00000000
     atom   15 type  1   force =     0.00000000    0.00000000    0.00000000
     atom   16 type  1   force =     0.00000000    0.00000000    0.00000000
     atom   17 type  2   force =     0.00000000    0.00000000    0.00000000
     atom   18 type  2   force =     0.00000000    0.00000000    0.00000000
     atom   19 type  1   force =     0.00000000    0.00000000    0.00000000
     atom   20 type  1   force =     0.00000000    0.00000000    0.00000000
     atom   21 type  2   force =     0.00000000    0.00000000    0.00000000
     atom   22 type  2   force =     0.00000000    0.00000000    0.00000000
     atom   23 type  1   force =     0.00000000    0.00000000    0.00000000
     atom   24 type  1   force =     0.00000000    0.00000000    0.00000000
     atom   25 type  1   force =     0.00000000    0.00000000    0.00000000
     atom   26 type  1   force =     0.00000000    0.00000000    0.00000000
     atom   27 type  1   force =     0.00000000    0.00000000    0.00000000
     atom   28 type  1   force =     0.00000000    0.00000000    0.00000000
     atom   29 type  2   force =     0.00000000    0.00000000    0.00000000
     atom   30 type  2   force =     0.00000000    0.00000000    0.00000000
     atom   31 type  1   force =     0.00000000    0.00000000    0.00000000
     atom   32 type  1   force =     0.00000000    0.00000000    0.00000000
     atom   33 type  2   force =     0.00000000    0.00000000    0.00000000
     atom   34 type  2   force =     0.00000000    0.00000000    0.00000000
     atom   35 type  1   force =     0.00000000    0.00000000    0.00000000
     atom   36 type  1   force =     0.00000000    0.00000000    0.00000000
     atom   37 type  1   force =     0.00000000    0.00000000    0.00000000
     atom   38 type  1   force =     0.00000000    0.00000000    0.00000000
     atom   39 type  1   force =     0.00000000    0.00000000    0.00000000
     atom   40 type  1   force =     0.00000000    0.00000000    0.00000000
     atom   41 type  3   force =     0.00000000    0.00000000    0.00000000
     atom   42 type  3   force =     0.00000000    0.00000000    0.00000000
     atom   43 type  3   force =     0.00000000    0.00000000    0.00000000
     atom   44 type  3   force =     0.00000000    0.00000000    0.00000000
     The SCF correction term to forces
     atom    1 type  1   force =     0.00000000    0.00000000    0.00000124
     atom    2 type  1   force =    -0.00000000    0.00000000    0.00000145
     atom    3 type  1   force =     0.00000000    0.00000000    0.00000179
     atom    4 type  1   force =    -0.00000000   -0.00000000    0.00000148
     atom    5 type  2   force =     0.00000109   -0.00000000    0.00000369
     atom    6 type  2   force =    -0.00000109   -0.00000000    0.00000369
     atom    7 type  1   force =     0.00000103   -0.00000045    0.00000154
     atom    8 type  1   force =    -0.00000103   -0.00000045    0.00000154
     atom    9 type  2   force =    -0.00000000    0.00000000    0.00000585
     atom   10 type  2   force =    -0.00000000    0.00000000    0.00000355
     atom   11 type  1   force =     0.00000103    0.00000045    0.00000154
     atom   12 type  1   force =    -0.00000103    0.00000045    0.00000154
     atom   13 type  1   force =    -0.00000000   -0.00000000    0.00000133
     atom   14 type  1   force =    -0.00000000   -0.00000000    0.00000089
     atom   15 type  1   force =    -0.00000000    0.00000000    0.00000168
     atom   16 type  1   force =     0.00000000    0.00000000    0.00000062
     atom   17 type  2   force =     0.00000000   -0.00000000    0.00000003
     atom   18 type  2   force =     0.00000000   -0.00000000    0.00000002
     atom   19 type  1   force =     0.00000001    0.00000004    0.00000001
     atom   20 type  1   force =    -0.00000001    0.00000004    0.00000001
     atom   21 type  2   force =     0.00000005    0.00000000    0.00000003
     atom   22 type  2   force =    -0.00000005    0.00000000    0.00000003
     atom   23 type  1   force =     0.00000001   -0.00000004    0.00000001
     atom   24 type  1   force =    -0.00000001   -0.00000004    0.00000001
     atom   25 type  1   force =    -0.00000000    0.00000000   -0.00000166
     atom   26 type  1   force =     0.00000000    0.00000000   -0.00000061
     atom   27 type  1   force =     0.00000000   -0.00000000   -0.00000132
     atom   28 type  1   force =    -0.00000000   -0.00000000   -0.00000088
     atom   29 type  2   force =     0.00000108   -0.00000000   -0.00000368
     atom   30 type  2   force =    -0.00000108   -0.00000000   -0.00000368
     atom   31 type  1   force =     0.00000103   -0.00000044   -0.00000154
     atom   32 type  1   force =    -0.00000103   -0.00000044   -0.00000154
     atom   33 type  2   force =     0.00000000    0.00000000   -0.00000585
     atom   34 type  2   force =    -0.00000000    0.00000000   -0.00000354
     atom   35 type  1   force =     0.00000103    0.00000044   -0.00000154
     atom   36 type  1   force =    -0.00000103    0.00000044   -0.00000154
     atom   37 type  1   force =     0.00000000   -0.00000000   -0.00000180
     atom   38 type  1   force =     0.00000000    0.00000000   -0.00000148
     atom   39 type  1   force =     0.00000000   -0.00000000   -0.00000125
     atom   40 type  1   force =    -0.00000000   -0.00000000   -0.00000146
     atom   41 type  3   force =     0.00000000   -0.00000010    0.00000021
     atom   42 type  3   force =     0.00000000   -0.00000010   -0.00000021
     atom   43 type  3   force =     0.00000000    0.00000010    0.00000021
     atom   44 type  3   force =     0.00000000    0.00000010   -0.00000021

     Total force =     0.000243     Total SCF correction =     0.000015
     Energy error            =      3.5E-07 Ry
     Gradient error          =      7.4E-05 Ry/Bohr

     bfgs converged in  17 scf cycles and  16 bfgs steps
     (criteria: energy <  1.0E-04 Ry, force <  1.0E-04 Ry/Bohr)

     End of BFGS Geometry Optimization

     Final energy             =   -3432.6292400481 Ry

     File /storage/home/mgm6007/ixd4/Maria/Strain2_Files/RuO2-110-0-24/RuO2-110-0-24.bfgs deleted, as requested
Begin final coordinates

ATOMIC_POSITIONS (crystal)
O             0.0000000000        0.5000000000        0.2741827726
O             0.5000000000        0.5000000000        0.2725955393
O             0.0000000000        0.0000000000        0.2904664440
O             0.5000000000        0.0000000000        0.3075959251
Ru            0.2615422000        0.0000000000        0.3584121910
Ru            0.7384578000       -0.0000000000        0.3584121910
O             0.2501985371        0.3105368906        0.3585365899
O             0.7498014629        0.3105368906        0.3585365899
Ru            0.0000000000        0.5000000000        0.3537599972
Ru            0.5000000000        0.5000000000        0.3505751406
O             0.2501985371        0.6894631094        0.3585365899
O             0.7498014629        0.6894631094        0.3585365899
O             0.0000000000        0.0000000000        0.4111953135
O             0.5000000000        0.0000000000        0.4123550035
O             0.0000000000        0.5000000000        0.4451876808
O             0.5000000000        0.5000000000        0.4445990495
Ru            0.0000000000        0.0000000000        0.5000010000
Ru            0.5000000000        0.0000000000        0.5000010000
O             0.2489710729        0.1879936841        0.5000010000
O             0.7510289271        0.1879936841        0.5000010000
Ru            0.2518346264        0.5000000000        0.5000010000
Ru            0.7481653736        0.5000000000        0.5000010000
O             0.2489710729        0.8120073159        0.5000010000
O             0.7510289271        0.8120073159        0.5000010000
O             0.0000000000        0.5000000000        0.5548133192
O             0.5000000000        0.5000000000        0.5554019505
O             0.0000000000        0.0000000000        0.5888056865
O             0.5000000000        0.0000000000        0.5876459965
Ru            0.2615422000       -0.0000000000        0.6415888090
Ru            0.7384578000        0.0000000000        0.6415888090
O             0.2501985371        0.3105368906        0.6414644101
O             0.7498014629        0.3105368906        0.6414644101
Ru            0.0000000000        0.5000000000        0.6462410028
Ru            0.5000000000        0.5000000000        0.6494258594
O             0.2501985371        0.6894631094        0.6414644101
O             0.7498014629        0.6894631094        0.6414644101
O             0.0000000000        0.0000000000        0.7095355560
O             0.5000000000        0.0000000000        0.6924060749
O             0.0000000000        0.5000000000        0.7258182274
O             0.5000000000        0.5000000000        0.7274054607
H             0.0000000000        0.1292020215        0.2633630671
H             0.0000000000        0.1292020215        0.7366369329
H             0.0000000000        0.8707979785        0.2633630671
H            -0.0000000000        0.8707979785        0.7366369329
End final coordinates



     Writing all to output data dir /storage/home/mgm6007/ixd4/Maria/Strain2_Files/RuO2-110-0-24/RuO2-110-0-24.save/
 
     init_run     :    200.03s CPU    645.03s WALL (       1 calls)
     electrons    :  17688.47s CPU 100570.88s WALL (      17 calls)
     update_pot   :     27.44s CPU     27.47s WALL (      16 calls)
     forces       :     26.44s CPU     26.82s WALL (      17 calls)

     Called by init_run:
     wfcinit      :      0.53s CPU      0.55s WALL (       1 calls)
     potinit      :    134.32s CPU    480.49s WALL (       1 calls)
     hinit0       :     64.72s CPU    163.27s WALL (       1 calls)

     Called by electrons:
     c_bands      :    400.52s CPU    401.16s WALL (     312 calls)
     sum_band     :     80.65s CPU     80.82s WALL (     312 calls)
     v_of_rho     :     37.84s CPU     37.97s WALL (     313 calls)
     newd         :     21.52s CPU     21.56s WALL (     313 calls)
     PAW_pot      :     38.38s CPU     38.45s WALL (     329 calls)
     mix_rho      :    200.79s CPU    201.04s WALL (     312 calls)

     Called by c_bands:
     init_us_2    :      3.96s CPU      3.98s WALL (     641 calls)
     init_us_2:cp :      3.95s CPU      3.98s WALL (     641 calls)
     cegterg      :    385.97s CPU    386.52s WALL (     312 calls)

     Called by *egterg:
     cdiaghg      :     49.80s CPU     49.87s WALL (    1066 calls)
     h_psi        :    193.04s CPU    193.39s WALL (    1099 calls)
     s_psi        :     30.18s CPU     30.22s WALL (    1099 calls)
     g_psi        :      0.98s CPU      0.98s WALL (     786 calls)

     Called by h_psi:
     h_psi:calbec :     29.95s CPU     29.99s WALL (    1099 calls)
     vloc_psi     :    129.83s CPU    130.09s WALL (    1099 calls)
     add_vuspsi   :     30.83s CPU     30.88s WALL (    1099 calls)

     General routines
     calbec       :     46.73s CPU     46.86s WALL (    1495 calls)
     fft          :   3677.35s CPU   3677.99s WALL (    4254 calls)
     ffts         :     71.90s CPU     71.92s WALL (  112056 calls)
     fftw         :    120.18s CPU    120.40s WALL (  363878 calls)
     interpolate  :   3652.31s CPU   3652.93s WALL (     313 calls)
 
     Parallel routines
 
     Environ routines
 
     PWSCF        :      5h15m CPU   1d 5h45m WALL

 
   This run was terminated on:  20: 4:19  24Jul2023            

=------------------------------------------------------------------------------=
   JOB DONE.
=------------------------------------------------------------------------------=
