
     Program PWSCF v.7.2 starts on 21Jul2023 at 17: 1:44 
        Git branch: heads/qe-7.2
        Last git commit: b4c5e8deeb7d1863e7553a87b45f8d22c21926a5
        Last git commit date: Mon Mar 27 16:12:09 2023 +0000
        Last git commit subject: Merge branch 'merge_fix_hubbard' into 'develop'

     This program is part of the open-source Quantum ESPRESSO suite
     for quantum simulation of materials; please cite
         "P. Giannozzi et al., J. Phys.:Condens. Matter 21 395502 (2009);
         "P. Giannozzi et al., J. Phys.:Condens. Matter 29 465901 (2017);
         "P. Giannozzi et al., J. Chem. Phys. 152 154105 (2020);
          URL http://www.quantum-espresso.org", 
     in publications or presentations arising from this work. More details at
     http://www.quantum-espresso.org/quote

     Parallel version (MPI), running on    20 processors

     MPI processes distributed on     1 nodes
     110615 MiB available memory on the printing compute node when the environment starts
 
     Reading input from RuO2-110-0-0.in

     Current dimensions of program PWSCF are:
     Max number of different atomic species (ntypx) = 10
     Max number of k-points (npk) =  40000
     Max angular momentum in pseudopotentials (lmaxx) =  4
 
     Reading input from environ.in:
     * Environ restarting
     * setting up water environment
     * using electronic solvent mode
     * setting boundary derivatives method to SCCS default
     

     File /storage/home/mgm6007/ixd4/Maria/Strain2_Files/RuO2-110-0-0/RuO2-110-0-0.update deleted, as requested

     File /storage/home/mgm6007/ixd4/Maria/Strain2_Files/RuO2-110-0-0/RuO2-110-0-0.bfgs deleted, as requested
     file O.pbe-n-kjpaw_psl.0.1.UPF: wavefunction(s)  2P renormalized
     Message from routine setup:
     using ibrav=0 with symmetry is DISCOURAGED, use correct ibrav instead
 
     R & G space division:  proc/nbgrp/npool/nimage =      20
     Subspace diagonalization in iterative solution of the eigenvalue problem:
     one sub-group per band group will be used
     scalapack distributed-memory algorithm (size of sub-group:  2*  2 procs)

 
     Parallelization info
     --------------------
     sticks:   dense  smooth     PW     G-vecs:    dense   smooth      PW
     Min         279     111     29                55537    14039    1893
     Max         280     112     30                55546    14052    1904
     Sum        5595    2237    595              1110843   280917   37967
 
     Using Slab Decomposition
 


     bravais-lattice index     =            0
     lattice parameter (alat)  =      12.2467  a.u.
     unit-cell volume          =    5883.2137 (a.u.)^3
     number of atoms/cell      =           42
     number of atomic types    =            3
     number of electrons       =       362.00
     number of Kohn-Sham states=          217
     kinetic-energy cutoff     =      50.0000  Ry
     charge density cutoff     =     500.0000  Ry
     scf convergence threshold =      1.0E-09
     mixing beta               =       0.7000
     number of iterations used =            8  local-TF  mixing
     energy convergence thresh.=      1.0E-04
     force convergence thresh. =      1.0E-04
     Exchange-correlation= PBE
                           (   1   4   3   4   0   0   0)
     nstep                     =          200


     ================================================================================
 
                                  Environ Setup Summary

     ================================================================================
 
     Please cite

          O. Andreussi, I. Dabo and N. Marzari, J. Chem. Phys. 136, 064102 (2012)

     in publications or presentations arising from this work.

     ================================================================================
 
     Parameters
     ==========

     compensation onset threshold      =               0.1000E+00
     static permittivity               =                    78.30
     surface tension in input (dyn/cm) =                    47.90
     surface tension in internal units =               0.6153E-04
     external pressure in input (GPa)  =                    -0.36
     external pressure in inter. units =              -0.2447E-04

     Solvent Boundary
     ================

     solvent mode                      =               electronic
     derivatives method                =                    chain
     numerical core for derivatives    =                      fft
     switching function adopted        =                     SCCS
     density limit for vacuum region   =               0.5000E-02
     density limit for bulk solvent    =               0.1000E-03

     Electrostatic Setup
     ===================

     electrostatic problem to solve    =              generalized
     numerical solver adopted          =                       cg
     type of auxiliary density adopted =                     none
     numerical core for poisson        =                      fft
     type of pbc corrections           =                parabolic
     numerical core for corrections    =                      1da

     ================================================================================
 

     celldm(1)=  12.246684  celldm(2)=   0.000000  celldm(3)=   0.000000
     celldm(4)=   0.000000  celldm(5)=   0.000000  celldm(6)=   0.000000

     crystal axes: (cart. coord. in units of alat)
               a(1) = (   1.000000   0.000000   0.000000 )  
               a(2) = (   0.000000   0.937861   0.000000 )  
               a(3) = (   0.000000   0.000000   3.415235 )  

     reciprocal axes: (cart. coord. in units 2 pi/alat)
               b(1) = (  1.000000  0.000000  0.000000 )  
               b(2) = (  0.000000  1.066256  0.000000 )  
               b(3) = (  0.000000  0.000000  0.292806 )  


     PseudoPot. # 1 for O  read from file:
     /gpfs/group/ixd4/default/Simon/pseudopotentials/materialscloud/SSSP_1.3.0_PBE_efficiency/O.pbe-n-kjpaw_psl.0.1.UPF
     MD5 check sum: 0234752ac141de4415c5fc33072bef88
     Pseudo is Projector augmented-wave + core cor, Zval =  6.0
     Generated using "atomic" code by A. Dal Corso  v.5.0.99 svn rev. 10869
     Shape of augmentation charge: BESSEL
     Using radial grid of 1095 points,  4 beta functions with: 
                l(1) =   0
                l(2) =   0
                l(3) =   1
                l(4) =   1
     Q(r) pseudized with 0 coefficients 


     PseudoPot. # 2 for Ru read from file:
     /gpfs/group/ixd4/default/Simon/pseudopotentials/materialscloud/SSSP_1.3.0_PBE_efficiency/Ru_ONCV_PBE-1.0.oncvpsp.upf
     MD5 check sum: be037bb81c227cfb9b1461a9f099f4bd
     Pseudo is Norm-conserving, Zval = 16.0
     Generated using ONCVPSP code by D. R. Hamann
     Using radial grid of 1458 points,  6 beta functions with: 
                l(1) =   0
                l(2) =   0
                l(3) =   1
                l(4) =   1
                l(5) =   2
                l(6) =   2

     PseudoPot. # 3 for H  read from file:
     /gpfs/group/ixd4/default/Simon/pseudopotentials/materialscloud/SSSP_1.3.0_PBE_efficiency/H.pbe-rrkjus_psl.1.0.0.UPF
     MD5 check sum: f52b6d4d1c606e5624b1dc7b2218f220
     Pseudo is Ultrasoft, Zval =  1.0
     Generated using "atomic" code by A. Dal Corso  v.5.1
     Using radial grid of  929 points,  2 beta functions with: 
                l(1) =   0
                l(2) =   0
     Q(r) pseudized with 0 coefficients 


     atomic species   valence    mass     pseudopotential
        O              6.00    15.99940     O ( 1.00)
        Ru            16.00   101.07000     Ru( 1.00)
        H              1.00     1.00794     H ( 1.00)

      4 Sym. Ops. (no inversion) found



   Cartesian axes

     site n.     atom                  positions (alat units)
         1           O   tau(   1) = (   0.0040669   0.4689304   0.8910049  )
         2           O   tau(   2) = (   0.4998849   0.4689304   0.9052798  )
         3           O   tau(   3) = (  -0.0000349   0.0000000   1.0139275  )
         4           O   tau(   4) = (   0.4999013   0.0000000   1.0138394  )
         5           Ru  tau(   5) = (   0.2501408   0.0000000   1.1926570  )
         6           Ru  tau(   6) = (   0.7499722   0.0000000   1.1928487  )
         7           O   tau(   7) = (   0.2494247   0.2905419   1.2026331  )
         8           O   tau(   8) = (   0.7506536   0.2906291   1.2023394  )
         9           Ru  tau(   9) = (   0.0008178   0.4689304   1.1956039  )
        10           Ru  tau(  10) = (   0.4999177   0.4689304   1.1862745  )
        11           O   tau(  11) = (   0.2494247   0.6473190   1.2026331  )
        12           O   tau(  12) = (   0.7506536   0.6472318   1.2023394  )
        13           O   tau(  13) = (   0.0000085   0.0000000   1.3981334  )
        14           O   tau(  14) = (   0.5000723   0.0000000   1.3981599  )
        15           O   tau(  15) = (   0.0004719   0.4689304   1.5102114  )
        16           O   tau(  16) = (   0.5001666   0.4689304   1.5110033  )
        17           Ru  tau(  17) = (   0.0000392   0.0000000   1.7076210  )
        18           Ru  tau(  18) = (   0.4999920   0.0000000   1.7076210  )
        19           O   tau(  19) = (   0.2499984   0.1780879   1.7076210  )
        20           O   tau(  20) = (   0.7499766   0.1781054   1.7076210  )
        21           Ru  tau(  21) = (   0.2492316   0.4689304   1.7076210  )
        22           Ru  tau(  22) = (   0.7500828   0.4689304   1.7076210  )
        23           O   tau(  23) = (   0.2499984   0.7597739   1.7076210  )
        24           O   tau(  24) = (   0.7499766   0.7597564   1.7076210  )
        25           O   tau(  25) = (   0.0004719   0.4689304   1.9050272  )
        26           O   tau(  26) = (   0.5001666   0.4689304   1.9042354  )
        27           O   tau(  27) = (   0.0000085   0.0000000   2.0171052  )
        28           O   tau(  28) = (   0.5000723   0.0000000   2.0170787  )
        29           Ru  tau(  29) = (   0.2501408   0.0000000   2.2225816  )
        30           Ru  tau(  30) = (   0.7499722   0.0000000   2.2223900  )
        31           O   tau(  31) = (   0.2494247   0.2905419   2.2126055  )
        32           O   tau(  32) = (   0.7506536   0.2906291   2.2128992  )
        33           Ru  tau(  33) = (   0.0008178   0.4689304   2.2196347  )
        34           Ru  tau(  34) = (   0.4999177   0.4689304   2.2289641  )
        35           O   tau(  35) = (   0.2494247   0.6473190   2.2126055  )
        36           O   tau(  36) = (   0.7506536   0.6472318   2.2128992  )
        37           O   tau(  37) = (  -0.0000349   0.0000000   2.4013145  )
        38           O   tau(  38) = (   0.4999013   0.0000000   2.4014026  )
        39           O   tau(  39) = (   0.0040669   0.4689304   2.5242338  )
        40           O   tau(  40) = (   0.4998849   0.4689304   2.5099588  )
        41           H   tau(  41) = (   0.1124447   0.4689304   0.7823407  )
        42           H   tau(  42) = (   0.1124447   0.4689304   2.6328946  )

     number of k points=     1  Marzari-Vanderbilt smearing, width (Ry)=  0.0300
                       cart. coord. in units 2pi/alat
        k(    1) = (   0.2500000   0.2665641   0.0000000), wk =   2.0000000

     Dense  grid:  1110843 G-vectors     FFT dimensions: (  90,  81, 300)

     Smooth grid:   280917 G-vectors     FFT dimensions: (  60,  54, 192)

     Estimated max dynamical RAM per process >     169.95 MB

     Estimated total dynamical RAM >       3.32 GB

     Check: negative core charge=   -0.000001

     Initial potential from superposition of free atoms

     starting charge     361.9933, renormalised to     362.0000

     add environment contribution to local potential
     Polarization accuracy = 3.1E-12, # of iterations =  26

     negative rho (up, down):  2.748E-05 0.000E+00
     Starting wfcs are  234 randomized atomic wfcs
     Checking if some PAW data can be deallocated... 

     total cpu time spent up to now is      502.0 secs

     per-process dynamical memory:   138.3 Mb

     Self-consistent Calculation

     iteration #  1     ecut=    50.00 Ry     beta= 0.70
     Davidson diagonalization with overlap
     ethr =  1.00E-02,  avg # of iterations =  2.0

     total cpu time spent up to now is      640.5 secs

     total energy              =   -3427.00271507 Ry
     estimated scf accuracy    <      11.42496471 Ry
     electrostatic embedding   =      -0.00175921 Ry
     cavitation energy         =       0.02058874 Ry
     PV energy                 =      -0.08522113 Ry
     correction to one-el term =     212.98517595 Ry

     iteration #  2     ecut=    50.00 Ry     beta= 0.70
     Davidson diagonalization with overlap
     ethr =  3.16E-03,  avg # of iterations =  2.0

     total cpu time spent up to now is      773.0 secs

     total energy              =   -3429.35244798 Ry
     estimated scf accuracy    <       6.32850228 Ry
     electrostatic embedding   =      -0.00216690 Ry
     cavitation energy         =       0.02099975 Ry
     PV energy                 =      -0.08449390 Ry
     correction to one-el term =     212.98568855 Ry

     iteration #  3     ecut=    50.00 Ry     beta= 0.70
     Davidson diagonalization with overlap
     ethr =  1.75E-03,  avg # of iterations =  1.0

     total cpu time spent up to now is      914.4 secs

     total energy              =   -3429.88620035 Ry
     estimated scf accuracy    <       4.26630968 Ry
     electrostatic embedding   =      -0.00251304 Ry
     cavitation energy         =       0.02088513 Ry
     PV energy                 =      -0.08500069 Ry
     correction to one-el term =     212.98693376 Ry

     iteration #  4     ecut=    50.00 Ry     beta= 0.70
     Davidson diagonalization with overlap
     ethr =  1.18E-03,  avg # of iterations =  1.0

     total cpu time spent up to now is     1040.3 secs

     total energy              =   -3429.98141175 Ry
     estimated scf accuracy    <       0.29258919 Ry
     electrostatic embedding   =      -0.00249607 Ry
     cavitation energy         =       0.02100425 Ry
     PV energy                 =      -0.08459825 Ry
     correction to one-el term =     212.98665855 Ry

     iteration #  5     ecut=    50.00 Ry     beta= 0.70
     Davidson diagonalization with overlap
     ethr =  8.08E-05,  avg # of iterations =  2.0

     total cpu time spent up to now is     1184.9 secs

     total energy              =   -3429.99757839 Ry
     estimated scf accuracy    <       0.11434975 Ry
     electrostatic embedding   =      -0.00252413 Ry
     cavitation energy         =       0.02115185 Ry
     PV energy                 =      -0.08416314 Ry
     correction to one-el term =     212.98651802 Ry

     iteration #  6     ecut=    50.00 Ry     beta= 0.70
     Davidson diagonalization with overlap
     ethr =  3.16E-05,  avg # of iterations =  1.0

     add environment contribution to local potential
     Polarization accuracy = 3.0E-12, # of iterations =  38

     total cpu time spent up to now is     1315.5 secs

     total energy              =   -3430.00175850 Ry
     estimated scf accuracy    <       0.08627156 Ry
     electrostatic embedding   =      -0.00253838 Ry
     cavitation energy         =       0.02132175 Ry
     PV energy                 =      -0.08369589 Ry
     correction to one-el term =     212.98636163 Ry

     iteration #  7     ecut=    50.00 Ry     beta= 0.70
     Davidson diagonalization with overlap
     ethr =  2.38E-05,  avg # of iterations =  2.0

     add environment contribution to local potential
     Polarization accuracy = 3.7E-12, # of iterations =  38

     total cpu time spent up to now is     1464.0 secs

     total energy              =   -3430.02975445 Ry
     estimated scf accuracy    <       0.03137883 Ry
     electrostatic embedding   =      -0.02298253 Ry
     cavitation energy         =       0.02155987 Ry
     PV energy                 =      -0.08306834 Ry
     correction to one-el term =     200.13238419 Ry

     iteration #  8     ecut=    50.00 Ry     beta= 0.70
     Davidson diagonalization with overlap
     ethr =  8.67E-06,  avg # of iterations =  2.0

     add environment contribution to local potential
     Polarization accuracy = 2.0E-12, # of iterations =  40

     total cpu time spent up to now is     1605.0 secs

     total energy              =   -3430.02985028 Ry
     estimated scf accuracy    <       0.02263949 Ry
     electrostatic embedding   =      -0.02429373 Ry
     cavitation energy         =       0.02158620 Ry
     PV energy                 =      -0.08297583 Ry
     correction to one-el term =     199.87275408 Ry

     iteration #  9     ecut=    50.00 Ry     beta= 0.70
     Davidson diagonalization with overlap
     ethr =  6.25E-06,  avg # of iterations =  7.0

     add environment contribution to local potential
     Polarization accuracy = 5.7E-12, # of iterations =  41

     total cpu time spent up to now is     1755.3 secs

     total energy              =   -3430.02958606 Ry
     estimated scf accuracy    <       0.03359695 Ry
     electrostatic embedding   =      -0.02733337 Ry
     cavitation energy         =       0.02163041 Ry
     PV energy                 =      -0.08280162 Ry
     correction to one-el term =     199.40492358 Ry

     iteration # 10     ecut=    50.00 Ry     beta= 0.70
     Davidson diagonalization with overlap
     ethr =  6.25E-06,  avg # of iterations =  2.0

     add environment contribution to local potential
     Polarization accuracy = 7.8E-12, # of iterations =  43

     total cpu time spent up to now is     1902.1 secs

     total energy              =   -3430.03047251 Ry
     estimated scf accuracy    <       0.03942910 Ry
     electrostatic embedding   =      -0.03346592 Ry
     cavitation energy         =       0.02167053 Ry
     PV energy                 =      -0.08254530 Ry
     correction to one-el term =     198.80278792 Ry

     iteration # 11     ecut=    50.00 Ry     beta= 0.70
     Davidson diagonalization with overlap
     ethr =  6.25E-06,  avg # of iterations =  2.0

     add environment contribution to local potential
     Polarization accuracy = 2.3E-12, # of iterations =  45

     total cpu time spent up to now is     2053.9 secs

     total energy              =   -3430.03144285 Ry
     estimated scf accuracy    <       0.03391564 Ry
     electrostatic embedding   =      -0.04182819 Ry
     cavitation energy         =       0.02168828 Ry
     PV energy                 =      -0.08230670 Ry
     correction to one-el term =     198.32039456 Ry

     iteration # 12     ecut=    50.00 Ry     beta= 0.70
     Davidson diagonalization with overlap
     ethr =  6.25E-06,  avg # of iterations =  2.0

     add environment contribution to local potential
     Polarization accuracy = 2.2E-12, # of iterations =  44

     total cpu time spent up to now is     2192.8 secs

     total energy              =   -3430.03177285 Ry
     estimated scf accuracy    <       0.01986203 Ry
     electrostatic embedding   =      -0.04628520 Ry
     cavitation energy         =       0.02163161 Ry
     PV energy                 =      -0.08224166 Ry
     correction to one-el term =     198.47236120 Ry

     iteration # 13     ecut=    50.00 Ry     beta= 0.70
     Davidson diagonalization with overlap
     ethr =  5.49E-06,  avg # of iterations =  3.0

     add environment contribution to local potential
     Polarization accuracy = 2.2E-12, # of iterations =  44

     total cpu time spent up to now is     2333.3 secs

     total energy              =   -3430.03208758 Ry
     estimated scf accuracy    <       0.00968769 Ry
     electrostatic embedding   =      -0.04706911 Ry
     cavitation energy         =       0.02159581 Ry
     PV energy                 =      -0.08221287 Ry
     correction to one-el term =     198.78926532 Ry

     iteration # 14     ecut=    50.00 Ry     beta= 0.70
     Davidson diagonalization with overlap
     ethr =  2.68E-06,  avg # of iterations = 11.0

     add environment contribution to local potential
     Polarization accuracy = 2.5E-12, # of iterations =  46

     total cpu time spent up to now is     2473.1 secs

     total energy              =   -3430.03230710 Ry
     estimated scf accuracy    <       0.00643769 Ry
     electrostatic embedding   =      -0.04938456 Ry
     cavitation energy         =       0.02152008 Ry
     PV energy                 =      -0.08221251 Ry
     correction to one-el term =     199.20774221 Ry

     iteration # 15     ecut=    50.00 Ry     beta= 0.70
     Davidson diagonalization with overlap
     ethr =  1.78E-06,  avg # of iterations = 19.0

     negative rho (up, down):  1.048E-05 0.000E+00

     add environment contribution to local potential
     Polarization accuracy = 7.4E-12, # of iterations =  45

     total cpu time spent up to now is     2617.1 secs

     total energy              =   -3430.03254159 Ry
     estimated scf accuracy    <       0.00312003 Ry
     electrostatic embedding   =      -0.05239190 Ry
     cavitation energy         =       0.02149426 Ry
     PV energy                 =      -0.08216631 Ry
     correction to one-el term =     199.35783812 Ry

     iteration # 16     ecut=    50.00 Ry     beta= 0.70
     Davidson diagonalization with overlap
     ethr =  8.62E-07,  avg # of iterations =  2.0

     negative rho (up, down):  5.135E-05 0.000E+00

     add environment contribution to local potential
     Polarization accuracy = 8.3E-12, # of iterations =  44

     total cpu time spent up to now is     2759.1 secs

     total energy              =   -3430.03276927 Ry
     estimated scf accuracy    <       0.00058772 Ry
     electrostatic embedding   =      -0.05401870 Ry
     cavitation energy         =       0.02143620 Ry
     PV energy                 =      -0.08215319 Ry
     correction to one-el term =     199.87413674 Ry

     iteration # 17     ecut=    50.00 Ry     beta= 0.70
     Davidson diagonalization with overlap
     ethr =  1.62E-07,  avg # of iterations =  2.0

     add environment contribution to local potential
     Polarization accuracy = 6.3E-12, # of iterations =  44

     total cpu time spent up to now is     2886.9 secs

     total energy              =   -3430.03287725 Ry
     estimated scf accuracy    <       0.00024692 Ry
     electrostatic embedding   =      -0.05305224 Ry
     cavitation energy         =       0.02140867 Ry
     PV energy                 =      -0.08216047 Ry
     correction to one-el term =     200.31365186 Ry

     iteration # 18     ecut=    50.00 Ry     beta= 0.70
     Davidson diagonalization with overlap
     ethr =  6.82E-08,  avg # of iterations =  3.0

     negative rho (up, down):  1.970E-08 0.000E+00

     add environment contribution to local potential
     Polarization accuracy = 9.3E-12, # of iterations =  44

     total cpu time spent up to now is     3030.5 secs

     total energy              =   -3430.03306931 Ry
     estimated scf accuracy    <       0.00029673 Ry
     electrostatic embedding   =      -0.05049210 Ry
     cavitation energy         =       0.02143440 Ry
     PV energy                 =      -0.08217359 Ry
     correction to one-el term =     200.39415586 Ry

     iteration # 19     ecut=    50.00 Ry     beta= 0.70
     Davidson diagonalization with overlap
     ethr =  6.82E-08,  avg # of iterations =  2.0

     negative rho (up, down):  5.820E-07 0.000E+00

     add environment contribution to local potential
     Polarization accuracy = 9.8E-12, # of iterations =  44

     total cpu time spent up to now is     3179.1 secs

     total energy              =   -3430.03314674 Ry
     estimated scf accuracy    <       0.00012653 Ry
     electrostatic embedding   =      -0.04941767 Ry
     cavitation energy         =       0.02144044 Ry
     PV energy                 =      -0.08217243 Ry
     correction to one-el term =     200.53413945 Ry

     iteration # 20     ecut=    50.00 Ry     beta= 0.70
     Davidson diagonalization with overlap
     ethr =  3.50E-08,  avg # of iterations =  3.0

     negative rho (up, down):  1.718E-06 0.000E+00

     add environment contribution to local potential
     Polarization accuracy = 1.8E-12, # of iterations =  45

     total cpu time spent up to now is     3324.7 secs

     total energy              =   -3430.03320272 Ry
     estimated scf accuracy    <       0.00003443 Ry
     electrostatic embedding   =      -0.04780581 Ry
     cavitation energy         =       0.02145327 Ry
     PV energy                 =      -0.08217581 Ry
     correction to one-el term =     200.65644090 Ry

     iteration # 21     ecut=    50.00 Ry     beta= 0.70
     Davidson diagonalization with overlap
     ethr =  9.51E-09,  avg # of iterations =  4.0

     negative rho (up, down):  8.555E-07 0.000E+00

     add environment contribution to local potential
     Polarization accuracy = 9.1E-12, # of iterations =  45

     total cpu time spent up to now is     3464.4 secs

     total energy              =   -3430.03321696 Ry
     estimated scf accuracy    <       0.00001880 Ry
     electrostatic embedding   =      -0.04653114 Ry
     cavitation energy         =       0.02146973 Ry
     PV energy                 =      -0.08217351 Ry
     correction to one-el term =     200.72455250 Ry

     iteration # 22     ecut=    50.00 Ry     beta= 0.70
     Davidson diagonalization with overlap
     ethr =  5.19E-09,  avg # of iterations =  2.0

     negative rho (up, down):  3.721E-05 0.000E+00

     add environment contribution to local potential
     Polarization accuracy = 1.9E-12, # of iterations =  46

     total cpu time spent up to now is     3602.8 secs

     total energy              =   -3430.03322976 Ry
     estimated scf accuracy    <       0.00000680 Ry
     electrostatic embedding   =      -0.04671344 Ry
     cavitation energy         =       0.02146817 Ry
     PV energy                 =      -0.08217086 Ry
     correction to one-el term =     200.72626526 Ry

     iteration # 23     ecut=    50.00 Ry     beta= 0.70
     Davidson diagonalization with overlap
     ethr =  1.88E-09,  avg # of iterations =  3.0

     negative rho (up, down):  7.306E-05 0.000E+00

     add environment contribution to local potential
     Polarization accuracy = 4.2E-12, # of iterations =  45

     total cpu time spent up to now is     3769.6 secs

     total energy              =   -3430.03323177 Ry
     estimated scf accuracy    <       0.00000776 Ry
     electrostatic embedding   =      -0.04634867 Ry
     cavitation energy         =       0.02146873 Ry
     PV energy                 =      -0.08216618 Ry
     correction to one-el term =     200.80737304 Ry

     iteration # 24     ecut=    50.00 Ry     beta= 0.70
     Davidson diagonalization with overlap
     ethr =  1.88E-09,  avg # of iterations =  1.0

     negative rho (up, down):  1.206E-04 0.000E+00

     add environment contribution to local potential
     Polarization accuracy = 9.4E-12, # of iterations =  44

     total cpu time spent up to now is     3896.2 secs

     total energy              =   -3430.03323246 Ry
     estimated scf accuracy    <       0.00000212 Ry
     electrostatic embedding   =      -0.04643124 Ry
     cavitation energy         =       0.02146686 Ry
     PV energy                 =      -0.08216377 Ry
     correction to one-el term =     200.82119625 Ry

     iteration # 25     ecut=    50.00 Ry     beta= 0.70
     Davidson diagonalization with overlap
     ethr =  5.86E-10,  avg # of iterations =  3.0

     negative rho (up, down):  1.268E-04 0.000E+00

     add environment contribution to local potential
     Polarization accuracy = 3.7E-12, # of iterations =  44

     total cpu time spent up to now is     4036.9 secs

     total energy              =   -3430.03323244 Ry
     estimated scf accuracy    <       0.00000122 Ry
     electrostatic embedding   =      -0.04620463 Ry
     cavitation energy         =       0.02146845 Ry
     PV energy                 =      -0.08216345 Ry
     correction to one-el term =     200.83711254 Ry

     iteration # 26     ecut=    50.00 Ry     beta= 0.70
     Davidson diagonalization with overlap
     ethr =  3.38E-10,  avg # of iterations =  2.0

     negative rho (up, down):  1.673E-04 0.000E+00

     add environment contribution to local potential
     Polarization accuracy = 6.7E-12, # of iterations =  45

     total cpu time spent up to now is     4172.8 secs

     total energy              =   -3430.03323288 Ry
     estimated scf accuracy    <       0.00000018 Ry
     electrostatic embedding   =      -0.04626243 Ry
     cavitation energy         =       0.02146750 Ry
     PV energy                 =      -0.08216187 Ry
     correction to one-el term =     200.83944822 Ry

     iteration # 27     ecut=    50.00 Ry     beta= 0.70
     Davidson diagonalization with overlap
     ethr =  4.87E-11,  avg # of iterations =  3.0

     negative rho (up, down):  1.521E-04 0.000E+00

     add environment contribution to local potential
     Polarization accuracy = 2.4E-12, # of iterations =  45

     total cpu time spent up to now is     4299.7 secs

     total energy              =   -3430.03323291 Ry
     estimated scf accuracy    <       0.00000018 Ry
     electrostatic embedding   =      -0.04617915 Ry
     cavitation energy         =       0.02146778 Ry
     PV energy                 =      -0.08216169 Ry
     correction to one-el term =     200.84585342 Ry

     iteration # 28     ecut=    50.00 Ry     beta= 0.70
     Davidson diagonalization with overlap
     ethr =  4.87E-11,  avg # of iterations =  2.0

     negative rho (up, down):  1.528E-04 0.000E+00

     add environment contribution to local potential
     Polarization accuracy = 6.7E-12, # of iterations =  44

     total cpu time spent up to now is     4441.5 secs

     total energy              =   -3430.03323317 Ry
     estimated scf accuracy    <       0.00000013 Ry
     electrostatic embedding   =      -0.04619140 Ry
     cavitation energy         =       0.02146754 Ry
     PV energy                 =      -0.08216158 Ry
     correction to one-el term =     200.84324945 Ry

     iteration # 29     ecut=    50.00 Ry     beta= 0.70
     Davidson diagonalization with overlap
     ethr =  3.63E-11,  avg # of iterations =  3.0

     negative rho (up, down):  1.473E-04 0.000E+00

     add environment contribution to local potential
     Polarization accuracy = 2.0E-12, # of iterations =  46

     total cpu time spent up to now is     4576.6 secs

     total energy              =   -3430.03323333 Ry
     estimated scf accuracy    <       0.00000011 Ry
     electrostatic embedding   =      -0.04616008 Ry
     cavitation energy         =       0.02146771 Ry
     PV energy                 =      -0.08216148 Ry
     correction to one-el term =     200.84410223 Ry

     iteration # 30     ecut=    50.00 Ry     beta= 0.70
     Davidson diagonalization with overlap
     ethr =  3.08E-11,  avg # of iterations =  1.0

     negative rho (up, down):  1.557E-04 0.000E+00

     add environment contribution to local potential
     Polarization accuracy = 7.9E-12, # of iterations =  45

     total cpu time spent up to now is     4709.6 secs

     total energy              =   -3430.03323344 Ry
     estimated scf accuracy    <       0.00000008 Ry
     electrostatic embedding   =      -0.04615766 Ry
     cavitation energy         =       0.02146773 Ry
     PV energy                 =      -0.08216154 Ry
     correction to one-el term =     200.84326138 Ry

     iteration # 31     ecut=    50.00 Ry     beta= 0.70
     Davidson diagonalization with overlap
     ethr =  2.22E-11,  avg # of iterations =  3.0

     negative rho (up, down):  1.439E-04 0.000E+00

     add environment contribution to local potential
     Polarization accuracy = 9.9E-12, # of iterations =  45

     total cpu time spent up to now is     4854.5 secs

     total energy              =   -3430.03323393 Ry
     estimated scf accuracy    <       0.00000008 Ry
     electrostatic embedding   =      -0.04611493 Ry
     cavitation energy         =       0.02146791 Ry
     PV energy                 =      -0.08216152 Ry
     correction to one-el term =     200.84527857 Ry

     iteration # 32     ecut=    50.00 Ry     beta= 0.70
     Davidson diagonalization with overlap
     ethr =  2.09E-11,  avg # of iterations =  1.0

     negative rho (up, down):  1.415E-04 0.000E+00

     add environment contribution to local potential
     Polarization accuracy = 7.8E-12, # of iterations =  44

     total cpu time spent up to now is     4987.6 secs

     total energy              =   -3430.03323425 Ry
     estimated scf accuracy    <       0.00000007 Ry
     electrostatic embedding   =      -0.04611318 Ry
     cavitation energy         =       0.02146802 Ry
     PV energy                 =      -0.08216181 Ry
     correction to one-el term =     200.84369760 Ry

     iteration # 33     ecut=    50.00 Ry     beta= 0.70
     Davidson diagonalization with overlap
     ethr =  1.82E-11,  avg # of iterations =  2.0

     negative rho (up, down):  1.420E-04 0.000E+00

     add environment contribution to local potential
     Polarization accuracy = 6.0E-12, # of iterations =  44

     total cpu time spent up to now is     5122.2 secs

     total energy              =   -3430.03323511 Ry
     estimated scf accuracy    <       0.00000007 Ry
     electrostatic embedding   =      -0.04610299 Ry
     cavitation energy         =       0.02146815 Ry
     PV energy                 =      -0.08216209 Ry
     correction to one-el term =     200.84400900 Ry

     iteration # 34     ecut=    50.00 Ry     beta= 0.70
     Davidson diagonalization with overlap
     ethr =  1.82E-11,  avg # of iterations =  2.0

     negative rho (up, down):  1.418E-04 0.000E+00

     add environment contribution to local potential
     Polarization accuracy = 8.6E-12, # of iterations =  45

     total cpu time spent up to now is     5262.2 secs

     total energy              =   -3430.03323613 Ry
     estimated scf accuracy    <       0.00000006 Ry
     electrostatic embedding   =      -0.04608792 Ry
     cavitation energy         =       0.02146824 Ry
     PV energy                 =      -0.08216227 Ry
     correction to one-el term =     200.84479692 Ry

     iteration # 35     ecut=    50.00 Ry     beta= 0.70
     Davidson diagonalization with overlap
     ethr =  1.78E-11,  avg # of iterations =  2.0

     negative rho (up, down):  1.422E-04 0.000E+00

     add environment contribution to local potential
     Polarization accuracy = 7.8E-12, # of iterations =  45

     total cpu time spent up to now is     5416.8 secs

     total energy              =   -3430.03323647 Ry
     estimated scf accuracy    <       0.00000007 Ry
     electrostatic embedding   =      -0.04608301 Ry
     cavitation energy         =       0.02146825 Ry
     PV energy                 =      -0.08216226 Ry
     correction to one-el term =     200.84493949 Ry

     iteration # 36     ecut=    50.00 Ry     beta= 0.70
     Davidson diagonalization with overlap
     ethr =  1.78E-11,  avg # of iterations =  2.0

     negative rho (up, down):  1.485E-04 0.000E+00

     add environment contribution to local potential
     Polarization accuracy = 5.6E-12, # of iterations =  44

     total cpu time spent up to now is     5565.0 secs

     total energy              =   -3430.03323740 Ry
     estimated scf accuracy    <       0.00000006 Ry
     electrostatic embedding   =      -0.04609389 Ry
     cavitation energy         =       0.02146820 Ry
     PV energy                 =      -0.08216238 Ry
     correction to one-el term =     200.84511247 Ry

     iteration # 37     ecut=    50.00 Ry     beta= 0.70
     Davidson diagonalization with overlap
     ethr =  1.58E-11,  avg # of iterations =  2.0

     negative rho (up, down):  1.639E-04 0.000E+00

     add environment contribution to local potential
     Polarization accuracy = 7.4E-12, # of iterations =  45

     total cpu time spent up to now is     5705.9 secs

     total energy              =   -3430.03324076 Ry
     estimated scf accuracy    <       0.00000005 Ry
     electrostatic embedding   =      -0.04610795 Ry
     cavitation energy         =       0.02146805 Ry
     PV energy                 =      -0.08216248 Ry
     correction to one-el term =     200.84631430 Ry

     iteration # 38     ecut=    50.00 Ry     beta= 0.70
     Davidson diagonalization with overlap
     ethr =  1.29E-11,  avg # of iterations =  3.0

     negative rho (up, down):  1.638E-04 0.000E+00

     add environment contribution to local potential
     Polarization accuracy = 6.0E-12, # of iterations =  44

     total cpu time spent up to now is     5830.4 secs

     total energy              =   -3430.03324949 Ry
     estimated scf accuracy    <       0.00000003 Ry
     electrostatic embedding   =      -0.04611827 Ry
     cavitation energy         =       0.02146779 Ry
     PV energy                 =      -0.08216234 Ry
     correction to one-el term =     200.84864396 Ry

     iteration # 39     ecut=    50.00 Ry     beta= 0.70
     Davidson diagonalization with overlap
     ethr =  7.91E-12,  avg # of iterations =  5.0

     negative rho (up, down):  1.655E-04 0.000E+00

     add environment contribution to local potential
     Polarization accuracy = 8.6E-12, # of iterations =  45

     total cpu time spent up to now is     5976.7 secs

     total energy              =   -3430.03325476 Ry
     estimated scf accuracy    <       0.00000003 Ry
     electrostatic embedding   =      -0.04610140 Ry
     cavitation energy         =       0.02146787 Ry
     PV energy                 =      -0.08216232 Ry
     correction to one-el term =     200.84882928 Ry

     iteration # 40     ecut=    50.00 Ry     beta= 0.70
     Davidson diagonalization with overlap
     ethr =  7.91E-12,  avg # of iterations =  2.0

     negative rho (up, down):  1.653E-04 0.000E+00

     add environment contribution to local potential
     Polarization accuracy = 4.3E-12, # of iterations =  44

     total cpu time spent up to now is     6116.0 secs

     total energy              =   -3430.03325411 Ry
     estimated scf accuracy    <       0.00000002 Ry
     electrostatic embedding   =      -0.04611491 Ry
     cavitation energy         =       0.02146778 Ry
     PV energy                 =      -0.08216218 Ry
     correction to one-el term =     200.84854684 Ry

     iteration # 41     ecut=    50.00 Ry     beta= 0.70
     Davidson diagonalization with overlap
     ethr =  4.44E-12,  avg # of iterations =  3.0

     negative rho (up, down):  1.644E-04 0.000E+00

     add environment contribution to local potential
     Polarization accuracy = 1.9E-12, # of iterations =  46

     total cpu time spent up to now is     6247.2 secs

     total energy              =   -3430.03325831 Ry
     estimated scf accuracy    <          5.0E-09 Ry
     electrostatic embedding   =      -0.04610872 Ry
     cavitation energy         =       0.02146783 Ry
     PV energy                 =      -0.08216192 Ry
     correction to one-el term =     200.84793235 Ry

     iteration # 42     ecut=    50.00 Ry     beta= 0.70
     Davidson diagonalization with overlap
     ethr =  1.39E-12,  avg # of iterations =  5.0

     negative rho (up, down):  1.608E-04 0.000E+00

     add environment contribution to local potential
     Polarization accuracy = 3.5E-12, # of iterations =  44

     total cpu time spent up to now is     6381.3 secs

     total energy              =   -3430.03326070 Ry
     estimated scf accuracy    <          3.8E-09 Ry
     electrostatic embedding   =      -0.04610739 Ry
     cavitation energy         =       0.02146786 Ry
     PV energy                 =      -0.08216180 Ry
     correction to one-el term =     200.84746828 Ry

     iteration # 43     ecut=    50.00 Ry     beta= 0.70
     Davidson diagonalization with overlap
     ethr =  1.04E-12,  avg # of iterations =  1.0

     negative rho (up, down):  1.589E-04 0.000E+00

     add environment contribution to local potential
     Polarization accuracy = 6.7E-12, # of iterations =  44

     total cpu time spent up to now is     6531.8 secs

     total energy              =   -3430.03326062 Ry
     estimated scf accuracy    <          1.9E-09 Ry
     electrostatic embedding   =      -0.04610879 Ry
     cavitation energy         =       0.02146791 Ry
     PV energy                 =      -0.08216176 Ry
     correction to one-el term =     200.84672931 Ry

     iteration # 44     ecut=    50.00 Ry     beta= 0.70
     Davidson diagonalization with overlap
     ethr =  5.37E-13,  avg # of iterations =  1.0

     negative rho (up, down):  1.513E-04 0.000E+00

     the potential shift due to the Gaussian-smeared nuclei is    -1.3150 ev

     total cpu time spent up to now is     6670.6 secs

     End of self-consistent calculation

          k = 0.2500 0.2666 0.0000 ( 35123 PWs)   bands (ev):

   -79.2106 -79.1989 -78.9724 -78.9626 -78.9610 -78.9512 -78.8220 -78.8104
   -78.5625 -78.5469 -78.5379 -78.5172 -49.5379 -49.5262 -49.1956 -49.1841
   -49.1827 -49.1713 -49.1402 -49.1285 -49.0091 -48.9974 -48.8650 -48.8583
   -48.8537 -48.8494 -48.8347 -48.8230 -48.8212 -48.8098 -48.8058 -48.7945
   -48.7913 -48.7798 -48.7796 -48.7683 -48.7295 -48.7136 -48.5925 -48.5367
   -48.5250 -48.5020 -48.4027 -48.3505 -48.3503 -48.3282 -48.3231 -48.3187
   -24.8989 -24.7967 -24.7207 -24.4026 -24.3552 -24.3162 -23.8432 -23.8264
   -23.8073 -23.7780 -23.6862 -23.6729 -23.5382 -23.4603 -23.4298 -23.3972
   -23.3540 -23.3154 -23.2213 -23.1935 -23.0876 -22.9724 -22.7361 -22.7213
   -22.6451 -22.5660 -22.4133 -22.3755 -13.1194 -13.1079 -13.0322 -12.4829
   -12.4640 -12.3859 -12.1965 -12.1147 -12.0953 -12.0244 -12.0030 -11.9776
   -11.9238 -11.8675 -11.8051 -11.6223 -11.5703 -11.4812 -11.4359 -11.3450
   -11.3400 -11.2689 -10.9855 -10.9533 -10.9006 -10.8677 -10.8472 -10.7558
   -10.6668 -10.3943 -10.3430 -10.3045 -10.2152 -10.2075 -10.1424 -10.0281
    -9.9801  -9.8498  -9.8410  -9.7804  -9.7704  -9.6001  -9.5611  -9.4765
    -9.3568  -9.3431  -9.2874  -9.2551  -9.2317  -9.2008  -9.1570  -9.0889
    -9.0084  -8.8572  -8.7094  -8.7050  -8.6195  -8.6109  -8.5876  -8.4043
    -8.3660  -8.3280  -8.2049  -8.1572  -8.1269  -8.1141  -7.9268  -7.9005
    -7.8749  -7.7744  -7.7251  -7.6738  -7.5861  -7.5352  -7.4305  -7.3507
    -7.3233  -7.2599  -7.2052  -7.1376  -7.0827  -6.9739  -6.8994  -6.8578
    -6.0981  -6.0562  -6.0023  -5.9706  -5.9420  -5.9088  -5.8656  -5.8425
    -5.8046  -5.7231  -5.7056  -5.6394  -5.6154  -5.5930  -5.5602  -5.4968
    -5.4195  -5.4165  -5.3582  -5.3026  -5.1500  -5.0894  -5.0569  -4.9872
    -4.9471  -4.8965  -4.7029  -4.6829  -4.4477  -4.4323  -4.3931  -4.3004
    -4.2419  -4.2292  -4.0099  -3.9382  -3.4342  -3.0802  -2.9321  -2.9173
    -2.7180  -2.7038  -2.5712  -2.0403  -1.9563  -1.7066  -1.6923  -1.5443
    -1.4476  -1.2909  -1.2534  -1.1318  -1.1183  -1.0488  -0.9109  -0.5956
    -0.5872

     the Fermi energy is    -5.1742 ev

!    total energy              =   -3430.03326058 Ry
     estimated scf accuracy    <          7.6E-10 Ry
     smearing contrib. (-TS)   =       0.04481054 Ry
     internal energy E=F+TS    =   -3430.07807111 Ry

     The total energy is F=E-TS. E is the sum of the following terms:
     one-electron contribution =  -23762.16213442 Ry
     hartree contribution      =   11850.10133324 Ry
     xc contribution           =    -443.09589435 Ry
     ewald contribution        =    8990.98531838 Ry
     one-center paw contrib.   =    -266.64625473 Ry
     electrostatic embedding   =      -0.04610951 Ry
     cavitation energy         =       0.02146793 Ry
     PV energy                 =      -0.08216174 Ry
     correction to one-el term =     200.84636408 Ry

     WARNING: you are using the parabolic pbc correction;
              the potential shift above must be added to 
              band and Fermi energies.

     convergence has been achieved in  44 iterations

     negative rho (up, down):  1.513E-04 0.000E+00

     Forces acting on atoms (cartesian axes, Ry/au):

     atom    1 type  1   force =    -0.01743245    0.00000000    0.03977440
     atom    2 type  1   force =    -0.00052623    0.00000000    0.11916986
     atom    3 type  1   force =    -0.00009789    0.00000000    0.07388670
     atom    4 type  1   force =    -0.00077546    0.00000000    0.07271577
     atom    5 type  2   force =     0.00358594    0.00000000   -0.03645230
     atom    6 type  2   force =    -0.00154282    0.00000000   -0.03396271
     atom    7 type  1   force =    -0.00651045    0.01261453    0.01004573
     atom    8 type  1   force =     0.00768150    0.01253191    0.00455148
     atom    9 type  2   force =     0.00979609    0.00000000   -0.02030606
     atom   10 type  2   force =     0.00199932    0.00000000   -0.10508116
     atom   11 type  1   force =    -0.00651045   -0.01261453    0.01004573
     atom   12 type  1   force =     0.00768150   -0.01253191    0.00455148
     atom   13 type  1   force =     0.00043165    0.00000000   -0.00337937
     atom   14 type  1   force =     0.00054933    0.00000000   -0.00220022
     atom   15 type  1   force =     0.00324867    0.00000000   -0.01241088
     atom   16 type  1   force =     0.00190773    0.00000000    0.00232096
     atom   17 type  2   force =    -0.00030608    0.00000000    0.00000000
     atom   18 type  2   force =    -0.00035710    0.00000000    0.00000000
     atom   19 type  1   force =     0.00037057   -0.01228966    0.00000000
     atom   20 type  1   force =     0.00018177   -0.01189888    0.00000000
     atom   21 type  2   force =     0.00025068    0.00000000    0.00000000
     atom   22 type  2   force =    -0.00573216    0.00000000    0.00000000
     atom   23 type  1   force =     0.00037057    0.01228966    0.00000000
     atom   24 type  1   force =     0.00018177    0.01189888    0.00000000
     atom   25 type  1   force =     0.00324867    0.00000000    0.01241088
     atom   26 type  1   force =     0.00190773    0.00000000   -0.00232096
     atom   27 type  1   force =     0.00043165    0.00000000    0.00337937
     atom   28 type  1   force =     0.00054933    0.00000000    0.00220022
     atom   29 type  2   force =     0.00358594    0.00000000    0.03645230
     atom   30 type  2   force =    -0.00154282    0.00000000    0.03396271
     atom   31 type  1   force =    -0.00651045    0.01261453   -0.01004573
     atom   32 type  1   force =     0.00768150    0.01253191   -0.00455148
     atom   33 type  2   force =     0.00979609    0.00000000    0.02030606
     atom   34 type  2   force =     0.00199932    0.00000000    0.10508116
     atom   35 type  1   force =    -0.00651045   -0.01261453   -0.01004573
     atom   36 type  1   force =     0.00768150   -0.01253191   -0.00455148
     atom   37 type  1   force =    -0.00009789    0.00000000   -0.07388670
     atom   38 type  1   force =    -0.00077546    0.00000000   -0.07271577
     atom   39 type  1   force =    -0.01743245    0.00000000   -0.03977440
     atom   40 type  1   force =    -0.00052623    0.00000000   -0.11916986
     atom   41 type  3   force =    -0.00096600    0.00000000    0.03159671
     atom   42 type  3   force =    -0.00096600    0.00000000   -0.03159671
     The non-local contrib.  to forces
     atom    1 type  1   force =     1.46151873    0.00000000   -0.11350169
     atom    2 type  1   force =    -0.02267917    0.00000000    1.31163932
     atom    3 type  1   force =     0.00299764    0.00000000    1.16913980
     atom    4 type  1   force =    -0.00464070    0.00000000    1.16719361
     atom    5 type  2   force =    -0.00525777    0.00000000   -0.05421882
     atom    6 type  2   force =     0.00203097    0.00000000   -0.05633333
     atom    7 type  1   force =     0.02299240   -0.01482363   -0.02844680
     atom    8 type  1   force =    -0.04044082   -0.02827197   -0.02302130
     atom    9 type  2   force =     0.00017151    0.00000000    0.02279061
     atom   10 type  2   force =    -0.00022129    0.00000000   -0.02962431
     atom   11 type  1   force =     0.02299240    0.01482363   -0.02844680
     atom   12 type  1   force =    -0.04044082    0.02827197   -0.02302130
     atom   13 type  1   force =    -0.00224570    0.00000000    0.02647786
     atom   14 type  1   force =     0.00043439    0.00000000    0.02340821
     atom   15 type  1   force =     0.00867012    0.00000000    0.05889026
     atom   16 type  1   force =     0.00582254    0.00000000    0.24226147
     atom   17 type  2   force =    -0.00003958    0.00000000    0.00000000
     atom   18 type  2   force =     0.00030592    0.00000000    0.00000000
     atom   19 type  1   force =    -0.00565442    0.03225756    0.00000000
     atom   20 type  1   force =     0.00377263    0.03246546    0.00000000
     atom   21 type  2   force =     0.00397055    0.00000000    0.00000000
     atom   22 type  2   force =     0.01145034    0.00000000    0.00000000
     atom   23 type  1   force =    -0.00565442   -0.03225756    0.00000000
     atom   24 type  1   force =     0.00377263   -0.03246546    0.00000000
     atom   25 type  1   force =     0.00867012    0.00000000   -0.05889026
     atom   26 type  1   force =     0.00582254    0.00000000   -0.24226147
     atom   27 type  1   force =    -0.00224570    0.00000000   -0.02647786
     atom   28 type  1   force =     0.00043439    0.00000000   -0.02340821
     atom   29 type  2   force =    -0.00525777    0.00000000    0.05421882
     atom   30 type  2   force =     0.00203097    0.00000000    0.05633333
     atom   31 type  1   force =     0.02299240   -0.01482363    0.02844680
     atom   32 type  1   force =    -0.04044082   -0.02827197    0.02302130
     atom   33 type  2   force =     0.00017151    0.00000000   -0.02279061
     atom   34 type  2   force =    -0.00022129    0.00000000    0.02962431
     atom   35 type  1   force =     0.02299240    0.01482363    0.02844680
     atom   36 type  1   force =    -0.04044082    0.02827197    0.02302130
     atom   37 type  1   force =     0.00299764    0.00000000   -1.16913980
     atom   38 type  1   force =    -0.00464070    0.00000000   -1.16719361
     atom   39 type  1   force =     1.46151873    0.00000000    0.11350169
     atom   40 type  1   force =    -0.02267917    0.00000000   -1.31163932
     atom   41 type  3   force =    -0.07038481    0.00000000    0.07718175
     atom   42 type  3   force =    -0.07038481    0.00000000   -0.07718175
     The ionic contribution  to forces
     atom    1 type  1   force =    -2.39891701    0.00000013  -91.06630103
     atom    2 type  1   force =     0.36142875    0.00000014  -95.96119829
     atom    3 type  1   force =    -0.10839808   -0.00000027  -91.29420226
     atom    4 type  1   force =     0.11591825   -0.00000027  -91.37479257
     atom    5 type  2   force =     0.10500755   -0.00000220 -167.43043273
     atom    6 type  2   force =    -0.10922585   -0.00000220 -167.52730489
     atom    7 type  1   force =     0.14317586   -0.85307062  -60.34299587
     atom    8 type  1   force =    -0.04708668   -0.68819432  -60.57103777
     atom    9 type  2   force =    -0.64246022    0.00000280 -164.52353990
     atom   10 type  2   force =     0.37641389    0.00000262 -165.24952190
     atom   11 type  1   force =     0.14317586    0.85307118  -60.34299368
     atom   12 type  1   force =    -0.04708668    0.68819488  -60.57103558
     atom   13 type  1   force =    -0.02151755   -0.00000191  -36.19322324
     atom   14 type  1   force =     0.02043338   -0.00000191  -36.17545926
     atom   15 type  1   force =    -0.11786575    0.00000939  -25.99153419
     atom   16 type  1   force =    -0.00193428    0.00000943  -26.64937181
     atom   17 type  2   force =    -0.05570281    0.00001356   -0.00042338
     atom   18 type  2   force =     0.02995441    0.00001357   -0.00042213
     atom   19 type  1   force =     0.10503809    0.63289487   -0.00007929
     atom   20 type  1   force =    -0.07340517    0.63905774   -0.00007898
     atom   21 type  2   force =     0.47648379    0.00011383   -0.00026292
     atom   22 type  2   force =    -0.28131164    0.00011385   -0.00026074
     atom   23 type  1   force =     0.10503757   -0.63303915   -0.00007929
     atom   24 type  1   force =    -0.07340491   -0.63920197   -0.00007898
     atom   25 type  1   force =    -0.11786876    0.00000939   25.99137349
     atom   26 type  1   force =    -0.00193586    0.00000943   26.64920773
     atom   27 type  1   force =    -0.02151783   -0.00000191   36.19351238
     atom   28 type  1   force =     0.02043362   -0.00000191   36.17574877
     atom   29 type  2   force =     0.10501012   -0.00000220  167.43068861
     atom   30 type  2   force =    -0.10922719   -0.00000220  167.52756254
     atom   31 type  1   force =     0.14317764   -0.85310194   60.34305999
     atom   32 type  1   force =    -0.04708786   -0.68822423   60.57110432
     atom   33 type  2   force =    -0.64246703    0.00000280  164.52367724
     atom   34 type  2   force =     0.37641767    0.00000262  165.24967005
     atom   35 type  1   force =     0.14317764    0.85310250   60.34305780
     atom   36 type  1   force =    -0.04708786    0.68822479   60.57110214
     atom   37 type  1   force =    -0.10839998   -0.00000027   91.29429710
     atom   38 type  1   force =     0.11591867   -0.00000027   91.37489003
     atom   39 type  1   force =    -2.39903027    0.00000013   91.06631975
     atom   40 type  1   force =     0.36143165    0.00000014   95.96125607
     atom   41 type  3   force =     2.11259626    0.00000001  -16.14357234
     atom   42 type  3   force =     2.11270857    0.00000001   16.14367503
     The local contribution  to forces
     atom    1 type  1   force =     0.81410016   -0.00000000   91.29220904
     atom    2 type  1   force =    -0.26170928    0.00000000   94.75556295
     atom    3 type  1   force =     0.08370099    0.00000000   90.18929224
     atom    4 type  1   force =    -0.09306999   -0.00000000   90.25977076
     atom    5 type  2   force =    -0.08736226    0.00000000  167.45995315
     atom    6 type  2   force =     0.09806676    0.00000000  167.52326751
     atom    7 type  1   force =    -0.16780267    0.87612239   60.39445400
     atom    8 type  1   force =     0.09084944    0.72937423   60.58770566
     atom    9 type  2   force =     0.61444387    0.00000000  164.49895689
     atom   10 type  2   force =    -0.33692448    0.00000000  165.16215050
     atom   11 type  1   force =    -0.16780267   -0.87612239   60.39445400
     atom   12 type  1   force =     0.09084944   -0.72937423   60.58770566
     atom   13 type  1   force =     0.02140642   -0.00000000   36.16289608
     atom   14 type  1   force =    -0.01759660   -0.00000000   36.14759481
     atom   15 type  1   force =     0.11072293   -0.00000000   25.92075772
     atom   16 type  1   force =    -0.00013303    0.00000000   26.41097027
     atom   17 type  2   force =     0.05320735    0.00000000   -0.00588393
     atom   18 type  2   force =    -0.02839201    0.00000000   -0.00588581
     atom   19 type  1   force =    -0.09874968   -0.67809028   -0.00244871
     atom   20 type  1   force =     0.06953993   -0.68398905   -0.00244922
     atom   21 type  2   force =    -0.47929723    0.00000000   -0.00599671
     atom   22 type  2   force =     0.26321841    0.00000000   -0.00599957
     atom   23 type  1   force =    -0.09874919    0.67773439   -0.00244871
     atom   24 type  1   force =     0.06953971    0.68363316   -0.00244922
     atom   25 type  1   force =     0.11072002    0.00000000  -25.92251151
     atom   26 type  1   force =    -0.00013537    0.00000000  -26.41274728
     atom   27 type  1   force =     0.02140643    0.00000000  -36.16463060
     atom   28 type  1   force =    -0.01759661    0.00000000  -36.14932826
     atom   29 type  2   force =    -0.08736022    0.00000000 -167.46600576
     atom   30 type  2   force =     0.09806507    0.00000000 -167.52932060
     atom   31 type  1   force =    -0.16779118    0.87612672  -60.39689621
     atom   32 type  1   force =     0.09083849    0.72937860  -60.59015004
     atom   33 type  2   force =     0.61444865    0.00000000 -164.50482147
     atom   34 type  2   force =    -0.33692963    0.00000000 -165.16797006
     atom   35 type  1   force =    -0.16779118   -0.87612672  -60.39689621
     atom   36 type  1   force =     0.09083849   -0.72937860  -60.59015004
     atom   37 type  1   force =     0.08370255   -0.00000000  -90.19309245
     atom   38 type  1   force =    -0.09306941    0.00000000  -90.26357684
     atom   39 type  1   force =     0.81415882    0.00000000  -91.29371141
     atom   40 type  1   force =    -0.26170917   -0.00000000  -94.75697565
     atom   41 type  3   force =    -2.07603399   -0.00000000   16.15143965
     atom   42 type  3   force =    -2.07603399   -0.00000000  -16.15143965
     The core correction contribution to forces
     atom    1 type  1   force =    -0.01531501   -0.00000000    0.00042686
     atom    2 type  1   force =     0.00022476    0.00000000   -0.01267379
     atom    3 type  1   force =    -0.00003549   -0.00000000   -0.01244284
     atom    4 type  1   force =     0.00004283   -0.00000000   -0.01240928
     atom    5 type  2   force =     0.00000000    0.00000000    0.00000000
     atom    6 type  2   force =     0.00000000    0.00000000    0.00000000
     atom    7 type  1   force =    -0.00033112   -0.00039219    0.00018371
     atom    8 type  1   force =     0.00054653   -0.00024410    0.00012869
     atom    9 type  2   force =     0.00000000    0.00000000    0.00000000
     atom   10 type  2   force =     0.00000000    0.00000000    0.00000000
     atom   11 type  1   force =    -0.00033112    0.00039219    0.00018371
     atom   12 type  1   force =     0.00054653    0.00024410    0.00012869
     atom   13 type  1   force =     0.00002728    0.00000000   -0.00032697
     atom   14 type  1   force =    -0.00000195    0.00000000   -0.00028828
     atom   15 type  1   force =    -0.00008310    0.00000000   -0.00055351
     atom   16 type  1   force =    -0.00006094   -0.00000000   -0.00277026
     atom   17 type  2   force =     0.00000000    0.00000000    0.00000000
     atom   18 type  2   force =     0.00000000    0.00000000    0.00000000
     atom   19 type  1   force =     0.00005857    0.00016580   -0.00000206
     atom   20 type  1   force =    -0.00004341    0.00017056   -0.00000207
     atom   21 type  2   force =     0.00000000    0.00000000    0.00000000
     atom   22 type  2   force =     0.00000000    0.00000000    0.00000000
     atom   23 type  1   force =     0.00005857   -0.00016635   -0.00000206
     atom   24 type  1   force =    -0.00004341   -0.00017111   -0.00000207
     atom   25 type  1   force =    -0.00008315   -0.00000000    0.00055100
     atom   26 type  1   force =    -0.00006094    0.00000000    0.00276793
     atom   27 type  1   force =     0.00002728   -0.00000000    0.00032442
     atom   28 type  1   force =    -0.00000194    0.00000000    0.00028570
     atom   29 type  2   force =     0.00000000    0.00000000    0.00000000
     atom   30 type  2   force =     0.00000000    0.00000000    0.00000000
     atom   31 type  1   force =    -0.00033106   -0.00039225   -0.00018548
     atom   32 type  1   force =     0.00054653   -0.00024409   -0.00013051
     atom   33 type  2   force =     0.00000000    0.00000000    0.00000000
     atom   34 type  2   force =     0.00000000    0.00000000    0.00000000
     atom   35 type  1   force =    -0.00033106    0.00039225   -0.00018548
     atom   36 type  1   force =     0.00054653    0.00024409   -0.00013051
     atom   37 type  1   force =    -0.00003547    0.00000000    0.01243776
     atom   38 type  1   force =     0.00004283    0.00000000    0.01240423
     atom   39 type  1   force =    -0.01531565    0.00000000   -0.00042975
     atom   40 type  1   force =     0.00022481   -0.00000000    0.01267169
     atom   41 type  3   force =     0.00000000    0.00000000    0.00000000
     atom   42 type  3   force =     0.00000000    0.00000000    0.00000000
     The Hubbard contrib.    to forces
     atom    1 type  1   force =     0.00000000    0.00000000    0.00000000
     atom    2 type  1   force =     0.00000000    0.00000000    0.00000000
     atom    3 type  1   force =     0.00000000    0.00000000    0.00000000
     atom    4 type  1   force =     0.00000000    0.00000000    0.00000000
     atom    5 type  2   force =     0.00000000    0.00000000    0.00000000
     atom    6 type  2   force =     0.00000000    0.00000000    0.00000000
     atom    7 type  1   force =     0.00000000    0.00000000    0.00000000
     atom    8 type  1   force =     0.00000000    0.00000000    0.00000000
     atom    9 type  2   force =     0.00000000    0.00000000    0.00000000
     atom   10 type  2   force =     0.00000000    0.00000000    0.00000000
     atom   11 type  1   force =     0.00000000    0.00000000    0.00000000
     atom   12 type  1   force =     0.00000000    0.00000000    0.00000000
     atom   13 type  1   force =     0.00000000    0.00000000    0.00000000
     atom   14 type  1   force =     0.00000000    0.00000000    0.00000000
     atom   15 type  1   force =     0.00000000    0.00000000    0.00000000
     atom   16 type  1   force =     0.00000000    0.00000000    0.00000000
     atom   17 type  2   force =     0.00000000    0.00000000    0.00000000
     atom   18 type  2   force =     0.00000000    0.00000000    0.00000000
     atom   19 type  1   force =     0.00000000    0.00000000    0.00000000
     atom   20 type  1   force =     0.00000000    0.00000000    0.00000000
     atom   21 type  2   force =     0.00000000    0.00000000    0.00000000
     atom   22 type  2   force =     0.00000000    0.00000000    0.00000000
     atom   23 type  1   force =     0.00000000    0.00000000    0.00000000
     atom   24 type  1   force =     0.00000000    0.00000000    0.00000000
     atom   25 type  1   force =     0.00000000    0.00000000    0.00000000
     atom   26 type  1   force =     0.00000000    0.00000000    0.00000000
     atom   27 type  1   force =     0.00000000    0.00000000    0.00000000
     atom   28 type  1   force =     0.00000000    0.00000000    0.00000000
     atom   29 type  2   force =     0.00000000    0.00000000    0.00000000
     atom   30 type  2   force =     0.00000000    0.00000000    0.00000000
     atom   31 type  1   force =     0.00000000    0.00000000    0.00000000
     atom   32 type  1   force =     0.00000000    0.00000000    0.00000000
     atom   33 type  2   force =     0.00000000    0.00000000    0.00000000
     atom   34 type  2   force =     0.00000000    0.00000000    0.00000000
     atom   35 type  1   force =     0.00000000    0.00000000    0.00000000
     atom   36 type  1   force =     0.00000000    0.00000000    0.00000000
     atom   37 type  1   force =     0.00000000    0.00000000    0.00000000
     atom   38 type  1   force =     0.00000000    0.00000000    0.00000000
     atom   39 type  1   force =     0.00000000    0.00000000    0.00000000
     atom   40 type  1   force =     0.00000000    0.00000000    0.00000000
     atom   41 type  3   force =     0.00000000    0.00000000    0.00000000
     atom   42 type  3   force =     0.00000000    0.00000000    0.00000000
     The SCF correction term to forces
     atom    1 type  1   force =     0.00000987   -0.00000000    0.00000995
     atom    2 type  1   force =    -0.00000841   -0.00000000    0.00001109
     atom    3 type  1   force =     0.00001711    0.00000001    0.00000736
     atom    4 type  1   force =    -0.00001704    0.00000001    0.00000820
     atom    5 type  2   force =    -0.00000477    0.00000003    0.00000717
     atom    6 type  2   force =     0.00000474    0.00000003    0.00002396
     atom    7 type  1   force =    -0.00000187    0.00000169   -0.00000100
     atom    8 type  1   force =     0.00000178    0.00001206    0.00000528
     atom    9 type  2   force =     0.00001821   -0.00000003    0.00000202
     atom   10 type  2   force =    -0.00001763   -0.00000003    0.00000012
     atom   11 type  1   force =    -0.00000187   -0.00000170   -0.00000101
     atom   12 type  1   force =     0.00000178   -0.00001207    0.00000528
     atom   13 type  1   force =     0.00000900    0.00000002    0.00001288
     atom   14 type  1   force =    -0.00000894    0.00000002    0.00001005
     atom   15 type  1   force =    -0.00000468   -0.00000002    0.00001013
     atom   16 type  1   force =     0.00000479   -0.00000002    0.00001030
     atom   17 type  2   force =     0.00000137    0.00000006    0.00003210
     atom   18 type  2   force =    -0.00000121    0.00000006    0.00003211
     atom   19 type  1   force =    -0.00000424   -0.00000507    0.00001181
     atom   20 type  1   force =     0.00000422    0.00000494    0.00001183
     atom   21 type  2   force =    -0.00000424   -0.00000007    0.00003172
     atom   22 type  2   force =     0.00000445   -0.00000007    0.00003174
     atom   23 type  1   force =    -0.00000424    0.00000509    0.00001181
     atom   24 type  1   force =     0.00000423   -0.00000492    0.00001183
     atom   25 type  1   force =    -0.00000469   -0.00000002    0.00000882
     atom   26 type  1   force =     0.00000480   -0.00000002    0.00000861
     atom   27 type  1   force =     0.00000897    0.00000002   -0.00000008
     atom   28 type  1   force =    -0.00000891    0.00000002    0.00000278
     atom   29 type  2   force =    -0.00000466    0.00000003   -0.00000919
     atom   30 type  2   force =     0.00000464    0.00000003   -0.00002593
     atom   31 type  1   force =    -0.00000186    0.00000148    0.00000094
     atom   32 type  1   force =     0.00000177    0.00001184   -0.00000534
     atom   33 type  2   force =     0.00001813   -0.00000003   -0.00000427
     atom   34 type  2   force =    -0.00001754   -0.00000003   -0.00000352
     atom   35 type  1   force =    -0.00000186   -0.00000149    0.00000095
     atom   36 type  1   force =     0.00000177   -0.00001185   -0.00000533
     atom   37 type  1   force =     0.00001707    0.00000001   -0.00001503
     atom   38 type  1   force =    -0.00001701    0.00000001   -0.00001587
     atom   39 type  1   force =     0.00000973   -0.00000000   -0.00001842
     atom   40 type  1   force =    -0.00000835   -0.00000000   -0.00001952
     atom   41 type  3   force =     0.00000033   -0.00000000    0.00000238
     atom   42 type  3   force =     0.00000041   -0.00000000   -0.00000348

     Total force =     0.294837     Total SCF correction =     0.000112

     BFGS Geometry Optimization
     Energy error            =      0.0E+00 Ry
     Gradient error          =      1.2E-01 Ry/Bohr

     number of scf cycles    =   1
     number of bfgs steps    =   0

     energy             new  =   -3430.0332605787 Ry

     new trust radius        =       0.1191710241 bohr
     new conv_thr            =       0.0000000010 Ry


ATOMIC_POSITIONS (crystal)
O             0.0026434399        0.5000000000        0.2618421843
O             0.4998418989        0.5000000000        0.2679202323
O            -0.0000428540        0.0000000000        0.2986502076
O             0.4998379829        0.0000000000        0.2985964211
Ru            0.2504336072        0.0000000000        0.3483451184
Ru            0.7498462195        0.0000000000        0.3484607618
O             0.2488930646        0.3108903561        0.3523778956
O             0.7512807921        0.3109761962        0.3521605357
Ru            0.0016176694        0.5000000000        0.3495940288
Ru            0.5000809959        0.5000000000        0.3448354431
O             0.2488930646        0.6891096439        0.3523778956
O             0.7512807921        0.6890238038        0.3521605357
O             0.0000437818        0.0000000000        0.4093005031
O             0.5001171983        0.0000000000        0.4093364555
O             0.0007371362        0.5000000000        0.4419016375
O             0.5003224044        0.5000000000        0.4424857097
Ru            0.0000142304        0.0000000000        0.5000010000
Ru            0.4999627925        0.0000000000        0.5000010000
O             0.2500286262        0.1888173168        0.5000010000
O             0.7499914221        0.1888700324        0.5000010000
Ru            0.2492520947        0.5000000000        0.5000010000
Ru            0.7496147267        0.5000000000        0.5000010000
O             0.2500286262        0.8111836832        0.5000010000
O             0.7499914221        0.8111309676        0.5000010000
O             0.0007371362        0.5000000000        0.5580993625
O             0.5003224044        0.5000000000        0.5575152903
O             0.0000437818        0.0000000000        0.5907004969
O             0.5001171983        0.0000000000        0.5906645445
Ru            0.2504336072        0.0000000000        0.6516558816
Ru            0.7498462195        0.0000000000        0.6515402382
O             0.2488930646        0.3108903561        0.6476231044
O             0.7512807921        0.3109761962        0.6478404643
Ru            0.0016176694        0.5000000000        0.6504069712
Ru            0.5000809959        0.5000000000        0.6551655569
O             0.2488930646        0.6891096439        0.6476231044
O             0.7512807921        0.6890238038        0.6478404643
O            -0.0000428540        0.0000000000        0.7013517924
O             0.4998379829        0.0000000000        0.7014055789
O             0.0026434399        0.5000000000        0.7381588157
O             0.4998418989        0.5000000000        0.7320807677
H             0.1123658359        0.5000000000        0.2298291731
H             0.1123658359        0.5000000000        0.7701708269



     Writing config-only to output data dir /storage/home/mgm6007/ixd4/Maria/Strain2_Files/RuO2-110-0-0/RuO2-110-0-0.save/
     NEW-OLD atomic charge density approx. for the potential

     Check: negative core charge=   -0.000001

     negative rho (up, down):  1.754E-04 0.000E+00

     add environment contribution to local potential
     Polarization accuracy = 2.7E-12, # of iterations =  45

     total cpu time spent up to now is     6808.5 secs

     per-process dynamical memory:   203.9 Mb

     Self-consistent Calculation

     iteration #  1     ecut=    50.00 Ry     beta= 0.70
     Davidson diagonalization with overlap
     ethr =  1.00E-06,  avg # of iterations = 18.0

     negative rho (up, down):  3.404E-08 0.000E+00

     total cpu time spent up to now is     6942.2 secs

     total energy              =   -3430.06609649 Ry
     estimated scf accuracy    <       0.25045360 Ry
     electrostatic embedding   =      -0.04974420 Ry
     cavitation energy         =       0.02112645 Ry
     PV energy                 =      -0.08182807 Ry
     correction to one-el term =     200.86013392 Ry

     iteration #  2     ecut=    50.00 Ry     beta= 0.70
     Davidson diagonalization with overlap
     ethr =  6.92E-05,  avg # of iterations =  1.0

     negative rho (up, down):  8.840E-08 0.000E+00

     total cpu time spent up to now is     7066.6 secs

     total energy              =   -3430.06091638 Ry
     estimated scf accuracy    <       0.62178920 Ry
     electrostatic embedding   =      -0.04954354 Ry
     cavitation energy         =       0.02112244 Ry
     PV energy                 =      -0.08207657 Ry
     correction to one-el term =     200.85773719 Ry

     iteration #  3     ecut=    50.00 Ry     beta= 0.70
     Davidson diagonalization with overlap
     ethr =  6.92E-05,  avg # of iterations =  1.0

     negative rho (up, down):  7.275E-08 0.000E+00

     total cpu time spent up to now is     7213.0 secs

     total energy              =   -3430.08923910 Ry
     estimated scf accuracy    <       0.15936127 Ry
     electrostatic embedding   =      -0.04958968 Ry
     cavitation energy         =       0.02117274 Ry
     PV energy                 =      -0.08200739 Ry
     correction to one-el term =     200.85772991 Ry

     iteration #  4     ecut=    50.00 Ry     beta= 0.70
     Davidson diagonalization with overlap
     ethr =  4.40E-05,  avg # of iterations =  1.0

     negative rho (up, down):  8.181E-08 0.000E+00

     add environment contribution to local potential
     Polarization accuracy = 2.1E-12, # of iterations =  43

     total cpu time spent up to now is     7349.6 secs

     total energy              =   -3430.08799227 Ry
     estimated scf accuracy    <       0.07804338 Ry
     electrostatic embedding   =      -0.04954039 Ry
     cavitation energy         =       0.02118633 Ry
     PV energy                 =      -0.08202942 Ry
     correction to one-el term =     200.85736238 Ry

     iteration #  5     ecut=    50.00 Ry     beta= 0.70
     Davidson diagonalization with overlap
     ethr =  2.16E-05,  avg # of iterations =  1.0

     negative rho (up, down):  1.419E-07 0.000E+00

     add environment contribution to local potential
     Polarization accuracy = 2.2E-12, # of iterations =  43

     total cpu time spent up to now is     7488.1 secs

     total energy              =   -3430.08483156 Ry
     estimated scf accuracy    <       0.03021390 Ry
     electrostatic embedding   =      -0.04628700 Ry
     cavitation energy         =       0.02123039 Ry
     PV energy                 =      -0.08203474 Ry
     correction to one-el term =     198.32274966 Ry

     iteration #  6     ecut=    50.00 Ry     beta= 0.70
     Davidson diagonalization with overlap
     ethr =  8.35E-06,  avg # of iterations =  1.0

     negative rho (up, down):  1.048E-07 0.000E+00

     add environment contribution to local potential
     Polarization accuracy = 3.0E-12, # of iterations =  43

     total cpu time spent up to now is     7638.6 secs

     total energy              =   -3430.08546790 Ry
     estimated scf accuracy    <       0.00517432 Ry
     electrostatic embedding   =      -0.04588580 Ry
     cavitation energy         =       0.02127749 Ry
     PV energy                 =      -0.08199117 Ry
     correction to one-el term =     197.74115509 Ry

     iteration #  7     ecut=    50.00 Ry     beta= 0.70
     Davidson diagonalization with overlap
     ethr =  1.43E-06,  avg # of iterations =  1.0

     negative rho (up, down):  6.559E-08 0.000E+00

     add environment contribution to local potential
     Polarization accuracy = 3.9E-12, # of iterations =  43

     total cpu time spent up to now is     7788.5 secs

     total energy              =   -3430.08551005 Ry
     estimated scf accuracy    <       0.00151729 Ry
     electrostatic embedding   =      -0.04567914 Ry
     cavitation energy         =       0.02130410 Ry
     PV energy                 =      -0.08193879 Ry
     correction to one-el term =     197.49718664 Ry

     iteration #  8     ecut=    50.00 Ry     beta= 0.70
     Davidson diagonalization with overlap
     ethr =  4.19E-07,  avg # of iterations =  1.0

     negative rho (up, down):  3.334E-08 0.000E+00

     add environment contribution to local potential
     Polarization accuracy = 7.8E-12, # of iterations =  43

     total cpu time spent up to now is     7930.8 secs

     total energy              =   -3430.08553233 Ry
     estimated scf accuracy    <       0.00056116 Ry
     electrostatic embedding   =      -0.04549070 Ry
     cavitation energy         =       0.02132547 Ry
     PV energy                 =      -0.08188374 Ry
     correction to one-el term =     197.34314181 Ry

     iteration #  9     ecut=    50.00 Ry     beta= 0.70
     Davidson diagonalization with overlap
     ethr =  1.55E-07,  avg # of iterations =  2.0

     add environment contribution to local potential
     Polarization accuracy = 7.2E-12, # of iterations =  45

     total cpu time spent up to now is     8071.2 secs

     total energy              =   -3430.08559454 Ry
     estimated scf accuracy    <       0.00025659 Ry
     electrostatic embedding   =      -0.04519384 Ry
     cavitation energy         =       0.02135093 Ry
     PV energy                 =      -0.08180772 Ry
     correction to one-el term =     197.24675373 Ry

     iteration # 10     ecut=    50.00 Ry     beta= 0.70
     Davidson diagonalization with overlap
     ethr =  7.09E-08,  avg # of iterations =  2.0

     add environment contribution to local potential
     Polarization accuracy = 3.5E-12, # of iterations =  44

     total cpu time spent up to now is     8226.6 secs

     total energy              =   -3430.08565035 Ry
     estimated scf accuracy    <       0.00006256 Ry
     electrostatic embedding   =      -0.04494772 Ry
     cavitation energy         =       0.02136116 Ry
     PV energy                 =      -0.08176824 Ry
     correction to one-el term =     197.28811776 Ry

     iteration # 11     ecut=    50.00 Ry     beta= 0.70
     Davidson diagonalization with overlap
     ethr =  1.73E-08,  avg # of iterations =  2.0

     add environment contribution to local potential
     Polarization accuracy = 8.5E-12, # of iterations =  45

     total cpu time spent up to now is     8352.5 secs

     total energy              =   -3430.08569246 Ry
     estimated scf accuracy    <       0.00003367 Ry
     electrostatic embedding   =      -0.04468975 Ry
     cavitation energy         =       0.02136104 Ry
     PV energy                 =      -0.08175393 Ry
     correction to one-el term =     197.40108603 Ry

     iteration # 12     ecut=    50.00 Ry     beta= 0.70
     Davidson diagonalization with overlap
     ethr =  9.30E-09,  avg # of iterations =  2.0

     negative rho (up, down):  2.124E-06 0.000E+00

     add environment contribution to local potential
     Polarization accuracy = 8.8E-12, # of iterations =  44

     total cpu time spent up to now is     8491.8 secs

     total energy              =   -3430.08573165 Ry
     estimated scf accuracy    <       0.00001705 Ry
     electrostatic embedding   =      -0.04448809 Ry
     cavitation energy         =       0.02135839 Ry
     PV energy                 =      -0.08174648 Ry
     correction to one-el term =     197.51178055 Ry

     iteration # 13     ecut=    50.00 Ry     beta= 0.70
     Davidson diagonalization with overlap
     ethr =  4.71E-09,  avg # of iterations =  3.0

     negative rho (up, down):  4.742E-05 0.000E+00

     add environment contribution to local potential
     Polarization accuracy = 8.4E-12, # of iterations =  45

     total cpu time spent up to now is     8623.5 secs

     total energy              =   -3430.08573885 Ry
     estimated scf accuracy    <       0.00000887 Ry
     electrostatic embedding   =      -0.04426140 Ry
     cavitation energy         =       0.02134901 Ry
     PV energy                 =      -0.08175047 Ry
     correction to one-el term =     197.67811354 Ry

     iteration # 14     ecut=    50.00 Ry     beta= 0.70
     Davidson diagonalization with overlap
     ethr =  2.45E-09,  avg # of iterations =  2.0

     negative rho (up, down):  9.764E-05 0.000E+00

     add environment contribution to local potential
     Polarization accuracy = 8.2E-12, # of iterations =  45

     total cpu time spent up to now is     8749.9 secs

     total energy              =   -3430.08573765 Ry
     estimated scf accuracy    <       0.00000307 Ry
     electrostatic embedding   =      -0.04418264 Ry
     cavitation energy         =       0.02134516 Ry
     PV energy                 =      -0.08175014 Ry
     correction to one-el term =     197.73933164 Ry

     iteration # 15     ecut=    50.00 Ry     beta= 0.70
     Davidson diagonalization with overlap
     ethr =  8.48E-10,  avg # of iterations =  2.0

     negative rho (up, down):  1.277E-04 0.000E+00

[...]
     atom   28 type  1   force =    -0.03906307   -0.00000205   38.31212309
     atom   29 type  2   force =     0.19807583   -0.00000250  175.15425454
     atom   30 type  2   force =    -0.10358440   -0.00000249  175.23704793
     atom   31 type  1   force =     0.27674465   -1.08250407   62.16647273
     atom   32 type  1   force =    -0.22671944   -1.12944529   62.31729742
     atom   33 type  2   force =    -0.00044532    0.00000351  167.67162256
     atom   34 type  2   force =    -0.01060646    0.00000294  173.41259161
     atom   35 type  1   force =     0.27674465    1.08250474   62.16647004
     atom   36 type  1   force =    -0.22671944    1.12944596   62.31729475
     atom   37 type  1   force =    -0.07317299   -0.00000035   94.08652717
     atom   38 type  1   force =     0.05491423   -0.00000035   94.12461935
     atom   39 type  1   force =    -2.99243665    0.00000017   96.00169475
     atom   40 type  1   force =     0.13369950    0.00000018  101.23058623
     atom   41 type  3   force =     2.67510957    0.00000002  -16.66098105
     atom   42 type  3   force =     2.67521144    0.00000002   16.66102054
     The local contribution  to forces
     atom    1 type  1   force =     1.13813417   -0.00000000   95.75883493
     atom    2 type  1   force =    -0.02883676    0.00000000   99.85508093
     atom    3 type  1   force =     0.04149994    0.00000000   92.99323893
     atom    4 type  1   force =    -0.03101418    0.00000000   93.02535389
     atom    5 type  2   force =    -0.18977964    0.00000000  175.23763787
     atom    6 type  2   force =     0.09674667    0.00000000  175.27445110
     atom    7 type  1   force =    -0.31530195    1.10946828   62.28970588
     atom    8 type  1   force =     0.27998327    1.16041584   62.38398183
     atom    9 type  2   force =    -0.05427423    0.00000000  167.66466215
     atom   10 type  2   force =     0.05615429    0.00000000  173.47951345
     atom   11 type  1   force =    -0.31530195   -1.10946828   62.28970588
     atom   12 type  1   force =     0.27998327   -1.16041584   62.38398183
     atom   13 type  1   force =     0.03894084    0.00000000   38.25197876
     atom   14 type  1   force =     0.03660414   -0.00000000   38.26264888
     atom   15 type  1   force =     0.11980927   -0.00000000   24.92832872
     atom   16 type  1   force =     0.06030067    0.00000000   27.23206571
     atom   17 type  2   force =     0.05199762    0.00000000   -0.00586720
     atom   18 type  2   force =     0.02669862    0.00000000   -0.00587908
     atom   19 type  1   force =    -0.00810240   -0.88214219   -0.00245883
     atom   20 type  1   force =    -0.01339941   -0.88511062   -0.00245916
     atom   21 type  2   force =    -1.17108104    0.00000000   -0.00602431
     atom   22 type  2   force =     0.52887491    0.00000000   -0.00602782
     atom   23 type  1   force =    -0.00810307    0.88178579   -0.00245883
     atom   24 type  1   force =    -0.01339999    0.88475436   -0.00245916
     atom   25 type  1   force =     0.11979843   -0.00000000  -24.93009065
     atom   26 type  1   force =     0.06029629    0.00000000  -27.23383982
     atom   27 type  1   force =     0.03894128   -0.00000000  -38.25372529
     atom   28 type  1   force =     0.03660475    0.00000000  -38.26439283
     atom   29 type  2   force =    -0.18977205   -0.00000000 -175.24375089
     atom   30 type  2   force =     0.09674116    0.00000000 -175.28056583
     atom   31 type  1   force =    -0.31527616    1.10946327  -62.29215270
     atom   32 type  1   force =     0.27996009    1.16041235  -62.38643270
     atom   33 type  2   force =    -0.05428612    0.00000000 -167.67049238
     atom   34 type  2   force =     0.05614564    0.00000000 -173.48524981
     atom   35 type  1   force =    -0.31527616   -1.10946327  -62.29215270
     atom   36 type  1   force =     0.27996009   -1.16041235  -62.38643270
     atom   37 type  1   force =     0.04149813   -0.00000000  -92.99715043
     atom   38 type  1   force =    -0.03101356   -0.00000000  -93.02926736
     atom   39 type  1   force =     1.13817154    0.00000000  -95.76036631
     atom   40 type  1   force =    -0.02884163   -0.00000000  -99.85644567
     atom   41 type  3   force =    -2.61104144    0.00000000   16.63348934
     atom   42 type  3   force =    -2.61104144   -0.00000000  -16.63348934
     The core correction contribution to forces
     atom    1 type  1   force =    -0.01775546    0.00000000   -0.00276294
     atom    2 type  1   force =     0.00021785   -0.00000000   -0.01131419
     atom    3 type  1   force =    -0.00007294    0.00000000   -0.01089551
     atom    4 type  1   force =     0.00001625   -0.00000000   -0.01092227
     atom    5 type  2   force =     0.00000000    0.00000000    0.00000000
     atom    6 type  2   force =     0.00000000    0.00000000    0.00000000
     atom    7 type  1   force =    -0.00061626   -0.00005770    0.00109613
     atom    8 type  1   force =     0.00079088   -0.00005521    0.00078053
     atom    9 type  2   force =     0.00000000    0.00000000    0.00000000
     atom   10 type  2   force =     0.00000000    0.00000000    0.00000000
     atom   11 type  1   force =    -0.00061626    0.00005770    0.00109613
     atom   12 type  1   force =     0.00079088    0.00005521    0.00078053
     atom   13 type  1   force =    -0.00001764    0.00000000   -0.00049551
     atom   14 type  1   force =    -0.00006131   -0.00000000   -0.00038281
     atom   15 type  1   force =     0.00008310    0.00000000    0.00003868
     atom   16 type  1   force =    -0.00002187    0.00000000   -0.00329203
     atom   17 type  2   force =     0.00000000    0.00000000    0.00000000
     atom   18 type  2   force =     0.00000000    0.00000000    0.00000000
     atom   19 type  1   force =    -0.00020840   -0.00000610   -0.00000206
     atom   20 type  1   force =     0.00007067    0.00002268   -0.00000207
     atom   21 type  2   force =     0.00000000    0.00000000    0.00000000
     atom   22 type  2   force =     0.00000000    0.00000000    0.00000000
     atom   23 type  1   force =    -0.00020840    0.00000555   -0.00000206
     atom   24 type  1   force =     0.00007067   -0.00002323   -0.00000207
     atom   25 type  1   force =     0.00008306   -0.00000000   -0.00004083
     atom   26 type  1   force =    -0.00002186   -0.00000000    0.00329001
     atom   27 type  1   force =    -0.00001764   -0.00000000    0.00049316
     atom   28 type  1   force =    -0.00006131    0.00000000    0.00038043
     atom   29 type  2   force =     0.00000000    0.00000000    0.00000000
     atom   30 type  2   force =     0.00000000    0.00000000    0.00000000
     atom   31 type  1   force =    -0.00061621   -0.00005781   -0.00109775
     atom   32 type  1   force =     0.00079087   -0.00005528   -0.00078218
     atom   33 type  2   force =     0.00000000    0.00000000    0.00000000
     atom   34 type  2   force =     0.00000000    0.00000000    0.00000000
     atom   35 type  1   force =    -0.00061621    0.00005781   -0.00109775
     atom   36 type  1   force =     0.00079087    0.00005528   -0.00078218
     atom   37 type  1   force =    -0.00007294   -0.00000000    0.01089074
     atom   38 type  1   force =     0.00001625   -0.00000000    0.01091759
     atom   39 type  1   force =    -0.01775618   -0.00000000    0.00276046
     atom   40 type  1   force =     0.00021786    0.00000000    0.01131257
     atom   41 type  3   force =     0.00000000    0.00000000    0.00000000
     atom   42 type  3   force =     0.00000000    0.00000000    0.00000000
     The Hubbard contrib.    to forces
     atom    1 type  1   force =     0.00000000    0.00000000    0.00000000
     atom    2 type  1   force =     0.00000000    0.00000000    0.00000000
     atom    3 type  1   force =     0.00000000    0.00000000    0.00000000
     atom    4 type  1   force =     0.00000000    0.00000000    0.00000000
     atom    5 type  2   force =     0.00000000    0.00000000    0.00000000
     atom    6 type  2   force =     0.00000000    0.00000000    0.00000000
     atom    7 type  1   force =     0.00000000    0.00000000    0.00000000
     atom    8 type  1   force =     0.00000000    0.00000000    0.00000000
     atom    9 type  2   force =     0.00000000    0.00000000    0.00000000
     atom   10 type  2   force =     0.00000000    0.00000000    0.00000000
     atom   11 type  1   force =     0.00000000    0.00000000    0.00000000
     atom   12 type  1   force =     0.00000000    0.00000000    0.00000000
     atom   13 type  1   force =     0.00000000    0.00000000    0.00000000
     atom   14 type  1   force =     0.00000000    0.00000000    0.00000000
     atom   15 type  1   force =     0.00000000    0.00000000    0.00000000
     atom   16 type  1   force =     0.00000000    0.00000000    0.00000000
     atom   17 type  2   force =     0.00000000    0.00000000    0.00000000
     atom   18 type  2   force =     0.00000000    0.00000000    0.00000000
     atom   19 type  1   force =     0.00000000    0.00000000    0.00000000
     atom   20 type  1   force =     0.00000000    0.00000000    0.00000000
     atom   21 type  2   force =     0.00000000    0.00000000    0.00000000
     atom   22 type  2   force =     0.00000000    0.00000000    0.00000000
     atom   23 type  1   force =     0.00000000    0.00000000    0.00000000
     atom   24 type  1   force =     0.00000000    0.00000000    0.00000000
     atom   25 type  1   force =     0.00000000    0.00000000    0.00000000
     atom   26 type  1   force =     0.00000000    0.00000000    0.00000000
     atom   27 type  1   force =     0.00000000    0.00000000    0.00000000
     atom   28 type  1   force =     0.00000000    0.00000000    0.00000000
     atom   29 type  2   force =     0.00000000    0.00000000    0.00000000
     atom   30 type  2   force =     0.00000000    0.00000000    0.00000000
     atom   31 type  1   force =     0.00000000    0.00000000    0.00000000
     atom   32 type  1   force =     0.00000000    0.00000000    0.00000000
     atom   33 type  2   force =     0.00000000    0.00000000    0.00000000
     atom   34 type  2   force =     0.00000000    0.00000000    0.00000000
     atom   35 type  1   force =     0.00000000    0.00000000    0.00000000
     atom   36 type  1   force =     0.00000000    0.00000000    0.00000000
     atom   37 type  1   force =     0.00000000    0.00000000    0.00000000
     atom   38 type  1   force =     0.00000000    0.00000000    0.00000000
     atom   39 type  1   force =     0.00000000    0.00000000    0.00000000
     atom   40 type  1   force =     0.00000000    0.00000000    0.00000000
     atom   41 type  3   force =     0.00000000    0.00000000    0.00000000
     atom   42 type  3   force =     0.00000000    0.00000000    0.00000000
     The SCF correction term to forces
     atom    1 type  1   force =     0.00000045   -0.00000000    0.00000101
     atom    2 type  1   force =     0.00000002    0.00000000    0.00000146
     atom    3 type  1   force =    -0.00000008    0.00000000    0.00000148
     atom    4 type  1   force =     0.00000009   -0.00000000    0.00000167
     atom    5 type  2   force =     0.00000016    0.00000000    0.00000377
     atom    6 type  2   force =    -0.00000013    0.00000000    0.00000483
     atom    7 type  1   force =     0.00000016   -0.00000022    0.00000137
     atom    8 type  1   force =    -0.00000023   -0.00000063    0.00000176
     atom    9 type  2   force =     0.00000007   -0.00000000    0.00000388
     atom   10 type  2   force =    -0.00000032   -0.00000000    0.00000407
     atom   11 type  1   force =     0.00000016    0.00000022    0.00000137
     atom   12 type  1   force =    -0.00000023    0.00000063    0.00000176
     atom   13 type  1   force =    -0.00000029    0.00000000    0.00000135
     atom   14 type  1   force =     0.00000024    0.00000000    0.00000202
     atom   15 type  1   force =     0.00000011   -0.00000000    0.00000085
     atom   16 type  1   force =     0.00000030   -0.00000000    0.00000117
     atom   17 type  2   force =    -0.00000032    0.00000000   -0.00000002
     atom   18 type  2   force =    -0.00000012    0.00000000   -0.00000002
     atom   19 type  1   force =     0.00000065   -0.00000075   -0.00000001
     atom   20 type  1   force =    -0.00000084   -0.00000072   -0.00000001
     atom   21 type  2   force =     0.00000109   -0.00000000   -0.00000002
     atom   22 type  2   force =    -0.00000115   -0.00000000   -0.00000002
     atom   23 type  1   force =     0.00000065    0.00000075   -0.00000001
     atom   24 type  1   force =    -0.00000084    0.00000072   -0.00000001
     atom   25 type  1   force =     0.00000011   -0.00000000   -0.00000087
     atom   26 type  1   force =     0.00000030   -0.00000000   -0.00000118
     atom   27 type  1   force =    -0.00000029    0.00000000   -0.00000136
     atom   28 type  1   force =     0.00000024    0.00000000   -0.00000203
     atom   29 type  2   force =     0.00000016    0.00000000   -0.00000377
     atom   30 type  2   force =    -0.00000013    0.00000000   -0.00000484
     atom   31 type  1   force =     0.00000016   -0.00000023   -0.00000137
     atom   32 type  1   force =    -0.00000023   -0.00000063   -0.00000177
     atom   33 type  2   force =     0.00000007   -0.00000000   -0.00000389
     atom   34 type  2   force =    -0.00000033   -0.00000000   -0.00000407
     atom   35 type  1   force =     0.00000016    0.00000023   -0.00000137
     atom   36 type  1   force =    -0.00000023    0.00000063   -0.00000177
     atom   37 type  1   force =    -0.00000008    0.00000000   -0.00000148
     atom   38 type  1   force =     0.00000009    0.00000000   -0.00000167
     atom   39 type  1   force =     0.00000045    0.00000000   -0.00000101
     atom   40 type  1   force =     0.00000002    0.00000000   -0.00000145
     atom   41 type  3   force =     0.00000004   -0.00000000    0.00000016
     atom   42 type  3   force =     0.00000004    0.00000000   -0.00000016

     Total force =     0.000284     Total SCF correction =     0.000014
     Energy error            =      3.0E-07 Ry
     Gradient error          =      6.6E-05 Ry/Bohr

     bfgs converged in  45 scf cycles and  44 bfgs steps
     (criteria: energy <  1.0E-04 Ry, force <  1.0E-04 Ry/Bohr)

     End of BFGS Geometry Optimization

     Final energy             =   -3430.1687799995 Ry

     File /storage/home/mgm6007/ixd4/Maria/Strain2_Files/RuO2-110-0-0/RuO2-110-0-0.bfgs deleted, as requested
Begin final coordinates

ATOMIC_POSITIONS (crystal)
O            -0.0091862822        0.5000000000        0.2725434520
O             0.4979864078        0.5000000000        0.2739088017
O            -0.0000206978        0.0000000000        0.3070401405
O             0.4995741735        0.0000000000        0.3067930915
Ru            0.2499715127        0.0000000000        0.3542536331
Ru            0.7494821340        0.0000000000        0.3542710002
O             0.2479658834        0.3114347404        0.3589589742
O             0.7511246029        0.3113333228        0.3588054130
Ru           -0.0005944906        0.5000000000        0.3585556121
Ru            0.5001145840        0.5000000000        0.3512071025
O             0.2479658834        0.6885652596        0.3589589742
O             0.7511246029        0.6886666772        0.3588054130
O             0.0000388061        0.0000000000        0.4119446954
O             0.5000878181        0.0000000000        0.4119264358
O             0.0036331234        0.5000000000        0.4465556765
O             0.5028560606        0.5000000000        0.4430108594
Ru            0.0005105778        0.0000000000        0.5000010000
Ru            0.5005437530        0.0000000000        0.5000010000
O             0.2507377702        0.1882440274        0.5000010000
O             0.7498081362        0.1883206895        0.5000010000
Ru            0.2560137416        0.5000000000        0.5000010000
Ru            0.7478807312        0.5000000000        0.5000010000
O             0.2507377702        0.8117569726        0.5000010000
O             0.7498081362        0.8116803105        0.5000010000
O             0.0036331234        0.5000000000        0.5534453235
O             0.5028560606        0.5000000000        0.5569901406
O             0.0000388061        0.0000000000        0.5880563046
O             0.5000878181        0.0000000000        0.5880745642
Ru            0.2499715127        0.0000000000        0.6457473669
Ru            0.7494821340        0.0000000000        0.6457299998
O             0.2479658834        0.3114347404        0.6410420258
O             0.7511246029        0.3113333228        0.6411955870
Ru           -0.0005944906        0.5000000000        0.6414453879
Ru            0.5001145840        0.5000000000        0.6487938975
O             0.2479658834        0.6885652596        0.6410420258
O             0.7511246029        0.6886666772        0.6411955870
O            -0.0000206978        0.0000000000        0.6929618595
O             0.4995741735        0.0000000000        0.6932089085
O            -0.0091862822        0.5000000000        0.7274575480
O             0.4979864078        0.5000000000        0.7260921983
H             0.1224905698        0.5000000000        0.2507051560
H             0.1224905698        0.5000000000        0.7492948440
End final coordinates



     Writing all to output data dir /storage/home/mgm6007/ixd4/Maria/Strain2_Files/RuO2-110-0-0/RuO2-110-0-0.save/
 
     init_run     :    205.76s CPU    501.41s WALL (       1 calls)
     electrons    :  54913.67s CPU 160064.14s WALL (      45 calls)
     update_pot   :     75.62s CPU     75.74s WALL (      44 calls)
     forces       :     72.08s CPU     72.59s WALL (      45 calls)

     Called by init_run:
     wfcinit      :      0.49s CPU      0.49s WALL (       1 calls)
     potinit      :    142.25s CPU    355.25s WALL (       1 calls)
     hinit0       :     62.56s CPU    145.02s WALL (       1 calls)

     Called by electrons:
     c_bands      :   1150.93s CPU   1152.91s WALL (     909 calls)
     sum_band     :    236.17s CPU    236.65s WALL (     909 calls)
     v_of_rho     :    112.21s CPU    112.60s WALL (     924 calls)
     newd         :     62.10s CPU     62.26s WALL (     924 calls)
     PAW_pot      :    111.23s CPU    111.43s WALL (     968 calls)
     mix_rho      :    699.07s CPU    700.07s WALL (     909 calls)

     Called by c_bands:
     init_us_2    :     10.97s CPU     11.03s WALL (    1863 calls)
     init_us_2:cp :     10.96s CPU     11.02s WALL (    1863 calls)
     cegterg      :   1108.56s CPU   1110.33s WALL (     909 calls)

     Called by *egterg:
     cdiaghg      :    136.03s CPU    136.26s WALL (    2857 calls)
     h_psi        :    560.99s CPU    562.08s WALL (    2932 calls)
     s_psi        :     88.16s CPU     88.30s WALL (    2932 calls)
     g_psi        :      2.87s CPU      2.88s WALL (    2022 calls)

     Called by h_psi:
     h_psi:calbec :     90.59s CPU     90.66s WALL (    2932 calls)
     vloc_psi     :    373.05s CPU    373.87s WALL (    2932 calls)
     add_vuspsi   :     90.12s CPU     90.33s WALL (    2932 calls)

     General routines
     calbec       :    141.48s CPU    141.62s WALL (    4065 calls)
     fft          :  11878.35s CPU  11880.22s WALL (   12491 calls)
     ffts         :    250.31s CPU    250.57s WALL (  387263 calls)
     fftw         :    349.89s CPU    350.52s WALL ( 1052173 calls)
     interpolate  :  11804.40s CPU  11806.23s WALL (     924 calls)
 
     Parallel routines
 
     Environ routines
 
     PWSCF        :     16h 5m CPU   1d22h52m WALL

 
   This run was terminated on:  15:54: 4  23Jul2023            

=------------------------------------------------------------------------------=
   JOB DONE.
=------------------------------------------------------------------------------=
