
     Program PWSCF v.7.2 starts on 26Jul2023 at 11:17:43 
        Git branch: heads/qe-7.2
        Last git commit: b4c5e8deeb7d1863e7553a87b45f8d22c21926a5
        Last git commit date: Mon Mar 27 16:12:09 2023 +0000
        Last git commit subject: Merge branch 'merge_fix_hubbard' into 'develop'

     This program is part of the open-source Quantum ESPRESSO suite
     for quantum simulation of materials; please cite
         "P. Giannozzi et al., J. Phys.:Condens. Matter 21 395502 (2009);
         "P. Giannozzi et al., J. Phys.:Condens. Matter 29 465901 (2017);
         "P. Giannozzi et al., J. Chem. Phys. 152 154105 (2020);
          URL http://www.quantum-espresso.org", 
     in publications or presentations arising from this work. More details at
     http://www.quantum-espresso.org/quote

     Parallel version (MPI), running on    20 processors

     MPI processes distributed on     1 nodes
     83567 MiB available memory on the printing compute node when the environment starts
 
     Reading input from RuO2-110-0-012.in

     Current dimensions of program PWSCF are:
     Max number of different atomic species (ntypx) = 10
     Max number of k-points (npk) =  40000
     Max angular momentum in pseudopotentials (lmaxx) =  4
 
     Reading input from environ.in:
     * Environ restarting
     * setting up water environment
     * using electronic solvent mode
     * setting boundary derivatives method to SCCS default
     
     file O.pbe-n-kjpaw_psl.0.1.UPF: wavefunction(s)  2P renormalized
     Message from routine setup:
     using ibrav=0 with symmetry is DISCOURAGED, use correct ibrav instead
 
     R & G space division:  proc/nbgrp/npool/nimage =      20
     Subspace diagonalization in iterative solution of the eigenvalue problem:
     one sub-group per band group will be used
     scalapack distributed-memory algorithm (size of sub-group:  2*  2 procs)

 
     Parallelization info
     --------------------
     sticks:   dense  smooth     PW     G-vecs:    dense   smooth      PW
     Min         276     110     29                54982    13912    1877
     Max         277     111     30                54993    13923    1888
     Sum        5537    2217    585              1099789   278381   37601
 
     Using Slab Decomposition
 


     bravais-lattice index     =            0
     lattice parameter (alat)  =      12.3824  a.u.
     unit-cell volume          =    5825.9133 (a.u.)^3
     number of atoms/cell      =           46
     number of atomic types    =            3
     number of electrons       =       366.00
     number of Kohn-Sham states=          220
     kinetic-energy cutoff     =      50.0000  Ry
     charge density cutoff     =     500.0000  Ry
     scf convergence threshold =      1.0E-09
     mixing beta               =       0.7000
     number of iterations used =            8  local-TF  mixing
     energy convergence thresh.=      1.0E-04
     force convergence thresh. =      1.0E-04
     Exchange-correlation= PBE
                           (   1   4   3   4   0   0   0)
     nstep                     =          200


     ================================================================================
 
                                  Environ Setup Summary

     ================================================================================
 
     Please cite

          O. Andreussi, I. Dabo and N. Marzari, J. Chem. Phys. 136, 064102 (2012)

     in publications or presentations arising from this work.

     ================================================================================
 
     Parameters
     ==========

     compensation onset threshold      =               0.1000E+00
     static permittivity               =                    78.30
     surface tension in input (dyn/cm) =                    47.90
     surface tension in internal units =               0.6153E-04
     external pressure in input (GPa)  =                    -0.36
     external pressure in inter. units =              -0.2447E-04

     Solvent Boundary
     ================

     solvent mode                      =               electronic
     derivatives method                =                    chain
     numerical core for derivatives    =                      fft
     switching function adopted        =                     SCCS
     density limit for vacuum region   =               0.5000E-02
     density limit for bulk solvent    =               0.1000E-03

     Electrostatic Setup
     ===================

     electrostatic problem to solve    =              generalized
     numerical solver adopted          =                       cg
     type of auxiliary density adopted =                     none
     numerical core for poisson        =                      fft
     type of pbc corrections           =                parabolic
     numerical core for corrections    =                      1da

     ================================================================================
 

     celldm(1)=  12.382447  celldm(2)=   0.000000  celldm(3)=   0.000000
     celldm(4)=   0.000000  celldm(5)=   0.000000  celldm(6)=   0.000000

     crystal axes: (cart. coord. in units of alat)
               a(1) = (   1.000000   0.000000   0.000000 )  
               a(2) = (   0.000000   0.908473   0.000000 )  
               a(3) = (   0.000000   0.000000   3.377790 )  

     reciprocal axes: (cart. coord. in units 2 pi/alat)
               b(1) = (  1.000000  0.000000  0.000000 )  
               b(2) = (  0.000000  1.100748  0.000000 )  
               b(3) = (  0.000000  0.000000  0.296052 )  


     PseudoPot. # 1 for O  read from file:
     /gpfs/group/ixd4/default/Simon/pseudopotentials/materialscloud/SSSP_1.3.0_PBE_efficiency/O.pbe-n-kjpaw_psl.0.1.UPF
     MD5 check sum: 0234752ac141de4415c5fc33072bef88
     Pseudo is Projector augmented-wave + core cor, Zval =  6.0
     Generated using "atomic" code by A. Dal Corso  v.5.0.99 svn rev. 10869
     Shape of augmentation charge: BESSEL
     Using radial grid of 1095 points,  4 beta functions with: 
                l(1) =   0
                l(2) =   0
                l(3) =   1
                l(4) =   1
     Q(r) pseudized with 0 coefficients 


     PseudoPot. # 2 for Ru read from file:
     /gpfs/group/ixd4/default/Simon/pseudopotentials/materialscloud/SSSP_1.3.0_PBE_efficiency/Ru_ONCV_PBE-1.0.oncvpsp.upf
     MD5 check sum: be037bb81c227cfb9b1461a9f099f4bd
     Pseudo is Norm-conserving, Zval = 16.0
     Generated using ONCVPSP code by D. R. Hamann
     Using radial grid of 1458 points,  6 beta functions with: 
                l(1) =   0
                l(2) =   0
                l(3) =   1
                l(4) =   1
                l(5) =   2
                l(6) =   2

     PseudoPot. # 3 for H  read from file:
     /gpfs/group/ixd4/default/Simon/pseudopotentials/materialscloud/SSSP_1.3.0_PBE_efficiency/H.pbe-rrkjus_psl.1.0.0.UPF
     MD5 check sum: f52b6d4d1c606e5624b1dc7b2218f220
     Pseudo is Ultrasoft, Zval =  1.0
     Generated using "atomic" code by A. Dal Corso  v.5.1
     Using radial grid of  929 points,  2 beta functions with: 
                l(1) =   0
                l(2) =   0
     Q(r) pseudized with 0 coefficients 


     atomic species   valence    mass     pseudopotential
        O              6.00    15.99940     O ( 1.00)
        Ru            16.00   101.07000     Ru( 1.00)
        H              1.00     1.00794     H ( 1.00)

      2 Sym. Ops. (no inversion) found



   Cartesian axes

     site n.     atom                  positions (alat units)
         1           O   tau(   1) = (  -0.0209036   0.4331816   0.9146030  )
         2           O   tau(   2) = (   0.5073232   0.4529209   0.9069069  )
         3           O   tau(   3) = (  -0.0022603   0.0064074   1.0031504  )
         4           O   tau(   4) = (   0.4995108  -0.0004091   1.0454873  )
         5           Ru  tau(   5) = (   0.2516928   0.0009429   1.2009022  )
         6           Ru  tau(   6) = (   0.7456035   0.0010975   1.2033201  )
         7           O   tau(   7) = (   0.2490698   0.2814616   1.2056511  )
         8           O   tau(   8) = (   0.7492089   0.2773429   1.2098955  )
         9           Ru  tau(   9) = (  -0.0027820   0.4543967   1.2111588  )
        10           Ru  tau(  10) = (   0.5009484   0.4543857   1.1986171  )
        11           O   tau(  11) = (   0.2456661   0.6273562   1.1976759  )
        12           O   tau(  12) = (   0.7520421   0.6314058   1.2061181  )
        13           O   tau(  13) = (   0.0011527   0.0000747   1.3918914  )
        14           O   tau(  14) = (   0.4974823  -0.0028010   1.3925395  )
        15           O   tau(  15) = (   0.0005303   0.4548837   1.5068198  )
        16           O   tau(  16) = (   0.5004500   0.4561840   1.4920477  )
        17           Ru  tau(  17) = (   0.0017019  -0.0002685   1.6888985  )
        18           Ru  tau(  18) = (   0.4973860   0.0002137   1.6888985  )
        19           O   tau(  19) = (   0.2509332   0.1785903   1.6888985  )
        20           O   tau(  20) = (   0.7485810   0.1737869   1.6888985  )
        21           Ru  tau(  21) = (   0.2550107   0.4545109   1.6888985  )
        22           Ru  tau(  22) = (   0.7436211   0.4545470   1.6888985  )
        23           O   tau(  23) = (   0.2500806   0.7305137   1.6888985  )
        24           O   tau(  24) = (   0.7496694   0.7348689   1.6888985  )
        25           O   tau(  25) = (   0.0005303   0.4548837   1.8709739  )
        26           O   tau(  26) = (   0.5004500   0.4561840   1.8857460  )
        27           O   tau(  27) = (   0.0011527   0.0000747   1.9859023  )
        28           O   tau(  28) = (   0.4974823  -0.0028010   1.9852542  )
        29           Ru  tau(  29) = (   0.2516928   0.0009429   2.1768915  )
        30           Ru  tau(  30) = (   0.7456035   0.0010975   2.1744736  )
        31           O   tau(  31) = (   0.2490698   0.2814616   2.1721426  )
        32           O   tau(  32) = (   0.7492089   0.2773429   2.1678982  )
        33           Ru  tau(  33) = (  -0.0027820   0.4543967   2.1666349  )
        34           Ru  tau(  34) = (   0.5009484   0.4543857   2.1791766  )
        35           O   tau(  35) = (   0.2456661   0.6273562   2.1801178  )
        36           O   tau(  36) = (   0.7520421   0.6314058   2.1716756  )
        37           O   tau(  37) = (  -0.0022603   0.0064074   2.3746467  )
        38           O   tau(  38) = (   0.4995108  -0.0004091   2.3323098  )
        39           O   tau(  39) = (  -0.0209036   0.4331816   2.4631907  )
        40           O   tau(  40) = (   0.5073232   0.4529209   2.4708868  )
        41           H   tau(  41) = (   0.1123514   0.4605152   0.8470236  )
        42           H   tau(  42) = (   0.1123514   0.4605152   2.5307667  )
        43           H   tau(  43) = (   0.6537023   0.4480319   0.8586010  )
        44           H   tau(  44) = (   0.6537023   0.4480319   2.5191894  )
        45           H   tau(  45) = (  -0.0040106   0.1165492   0.9150429  )
        46           H   tau(  46) = (  -0.0040106   0.1165492   2.4627475  )

     number of k points=     2  Marzari-Vanderbilt smearing, width (Ry)=  0.0300
                       cart. coord. in units 2pi/alat
        k(    1) = (   0.2500000   0.2751871   0.0000000), wk =   1.0000000
        k(    2) = (  -0.2500000   0.2751871   0.0000000), wk =   1.0000000

     Dense  grid:  1099789 G-vectors     FFT dimensions: (  90,  81, 300)

     Smooth grid:   278381 G-vectors     FFT dimensions: (  60,  54, 192)

     Estimated max dynamical RAM per process >     180.34 MB

     Estimated total dynamical RAM >       3.52 GB

     Check: negative core charge=   -0.000001

     Initial potential from superposition of free atoms

     starting charge     365.9933, renormalised to     366.0000

     add environment contribution to local potential
     Polarization accuracy = 7.7E-12, # of iterations =  24

     negative rho (up, down):  2.925E-05 0.000E+00
     Starting wfcs are  238 randomized atomic wfcs
     Checking if some PAW data can be deallocated... 

     total cpu time spent up to now is     1541.0 secs

     per-process dynamical memory:   150.3 Mb

     Self-consistent Calculation

     iteration #  1     ecut=    50.00 Ry     beta= 0.70
     Davidson diagonalization with overlap
     ethr =  1.00E-02,  avg # of iterations =  2.0

     total cpu time spent up to now is     2021.7 secs

     total energy              =   -3432.72912456 Ry
     estimated scf accuracy    <       9.52275038 Ry
     electrostatic embedding   =      -0.00181446 Ry
     cavitation energy         =       0.01952903 Ry
     PV energy                 =      -0.08440674 Ry
     correction to one-el term =     220.70408390 Ry

     iteration #  2     ecut=    50.00 Ry     beta= 0.70
     Davidson diagonalization with overlap
     ethr =  2.60E-03,  avg # of iterations =  2.0

     total cpu time spent up to now is     2527.5 secs

     total energy              =   -3434.87868564 Ry
     estimated scf accuracy    <       1.86278683 Ry
     electrostatic embedding   =      -0.00266060 Ry
     cavitation energy         =       0.01947772 Ry
     PV energy                 =      -0.08485408 Ry
     correction to one-el term =     220.70663646 Ry

     iteration #  3     ecut=    50.00 Ry     beta= 0.70
     Davidson diagonalization with overlap
     ethr =  5.09E-04,  avg # of iterations =  1.0

     total cpu time spent up to now is     2954.4 secs

     total energy              =   -3435.08309778 Ry
     estimated scf accuracy    <       0.25907659 Ry
     electrostatic embedding   =      -0.00294190 Ry
     cavitation energy         =       0.01952786 Ry
     PV energy                 =      -0.08471253 Ry
     correction to one-el term =     220.70729753 Ry

     iteration #  4     ecut=    50.00 Ry     beta= 0.70
     Davidson diagonalization with overlap
     ethr =  7.08E-05,  avg # of iterations =  1.0

     total cpu time spent up to now is     3371.9 secs

     total energy              =   -3435.08989019 Ry
     estimated scf accuracy    <       0.14769009 Ry
     electrostatic embedding   =      -0.00303614 Ry
     cavitation energy         =       0.01968290 Ry
     PV energy                 =      -0.08414717 Ry
     correction to one-el term =     220.70727164 Ry

     iteration #  5     ecut=    50.00 Ry     beta= 0.70
     Davidson diagonalization with overlap
     ethr =  4.04E-05,  avg # of iterations =  1.0

     total cpu time spent up to now is     3831.8 secs

     total energy              =   -3435.09362057 Ry
     estimated scf accuracy    <       0.12885238 Ry
     electrostatic embedding   =      -0.00307904 Ry
     cavitation energy         =       0.02005426 Ry
     PV energy                 =      -0.08315691 Ry
     correction to one-el term =     220.70696258 Ry

     iteration #  6     ecut=    50.00 Ry     beta= 0.70
     Davidson diagonalization with overlap
     ethr =  3.52E-05,  avg # of iterations =  1.0

     add environment contribution to local potential
     Polarization accuracy = 3.4E-12, # of iterations =  37

     total cpu time spent up to now is     4356.0 secs

     total energy              =   -3435.09211512 Ry
     estimated scf accuracy    <       0.04543212 Ry
     electrostatic embedding   =      -0.00305449 Ry
     cavitation energy         =       0.02032827 Ry
     PV energy                 =      -0.08248865 Ry
     correction to one-el term =     220.70664008 Ry

     iteration #  7     ecut=    50.00 Ry     beta= 0.70
     Davidson diagonalization with overlap
     ethr =  1.24E-05,  avg # of iterations =  2.0

     add environment contribution to local potential
     Polarization accuracy = 4.9E-12, # of iterations =  38

     total cpu time spent up to now is     4866.0 secs

     total energy              =   -3435.11067279 Ry
     estimated scf accuracy    <       0.03683896 Ry
     electrostatic embedding   =      -0.02879428 Ry
     cavitation energy         =       0.02061073 Ry
     PV energy                 =      -0.08180236 Ry
     correction to one-el term =     193.12120972 Ry

     iteration #  8     ecut=    50.00 Ry     beta= 0.70
     Davidson diagonalization with overlap
     ethr =  1.01E-05,  avg # of iterations =  1.0

     add environment contribution to local potential
     Polarization accuracy = 4.4E-12, # of iterations =  43

     total cpu time spent up to now is     5377.5 secs

     total energy              =   -3435.10792922 Ry
     estimated scf accuracy    <       0.02842708 Ry
     electrostatic embedding   =      -0.03029509 Ry
     cavitation energy         =       0.02071980 Ry
     PV energy                 =      -0.08155247 Ry
     correction to one-el term =     192.35031820 Ry

     iteration #  9     ecut=    50.00 Ry     beta= 0.70
     Davidson diagonalization with overlap
     ethr =  7.77E-06,  avg # of iterations =  1.0

     negative rho (up, down):  3.552E-08 0.000E+00

     add environment contribution to local potential
     Polarization accuracy = 5.8E-12, # of iterations =  49

     total cpu time spent up to now is     5853.0 secs

     total energy              =   -3435.10598246 Ry
     estimated scf accuracy    <       0.02466700 Ry
     electrostatic embedding   =      -0.03497843 Ry
     cavitation energy         =       0.02104710 Ry
     PV energy                 =      -0.08088509 Ry
     correction to one-el term =     190.29054520 Ry

     iteration # 10     ecut=    50.00 Ry     beta= 0.70
     Davidson diagonalization with overlap
     ethr =  6.74E-06,  avg # of iterations =  2.0

     negative rho (up, down):  2.478E-05 0.000E+00

     add environment contribution to local potential
     Polarization accuracy = 2.8E-12, # of iterations =  49

     total cpu time spent up to now is     6330.0 secs

     total energy              =   -3435.10689289 Ry
     estimated scf accuracy    <       0.02434017 Ry
     electrostatic embedding   =      -0.04222348 Ry
     cavitation energy         =       0.02140027 Ry
     PV energy                 =      -0.08011764 Ry
     correction to one-el term =     188.41134579 Ry

     iteration # 11     ecut=    50.00 Ry     beta= 0.70
     Davidson diagonalization with overlap
     ethr =  6.65E-06,  avg # of iterations =  1.0

     negative rho (up, down):  5.357E-06 0.000E+00

     add environment contribution to local potential
     Polarization accuracy = 4.8E-12, # of iterations =  48

     total cpu time spent up to now is     6803.9 secs

     total energy              =   -3435.10811737 Ry
     estimated scf accuracy    <       0.00742225 Ry
     electrostatic embedding   =      -0.04041372 Ry
     cavitation energy         =       0.02120258 Ry
     PV energy                 =      -0.08021164 Ry
     correction to one-el term =     189.60757538 Ry

     iteration # 12     ecut=    50.00 Ry     beta= 0.70
     Davidson diagonalization with overlap
     ethr =  2.03E-06,  avg # of iterations = 11.0

     negative rho (up, down):  7.141E-05 0.000E+00

     add environment contribution to local potential
     Polarization accuracy = 2.1E-12, # of iterations =  48

     total cpu time spent up to now is     7348.1 secs

     total energy              =   -3435.10892094 Ry
     estimated scf accuracy    <       0.00348533 Ry
     electrostatic embedding   =      -0.03844033 Ry
     cavitation energy         =       0.02107089 Ry
     PV energy                 =      -0.08032534 Ry
     correction to one-el term =     190.58824553 Ry

     iteration # 13     ecut=    50.00 Ry     beta= 0.70
     Davidson diagonalization with overlap
     ethr =  9.52E-07,  avg # of iterations =  6.0

     negative rho (up, down):  2.942E-05 0.000E+00

     add environment contribution to local potential
     Polarization accuracy = 6.4E-12, # of iterations =  45

     total cpu time spent up to now is     7816.1 secs

     total energy              =   -3435.10982790 Ry
     estimated scf accuracy    <       0.00186055 Ry
     electrostatic embedding   =      -0.03681464 Ry
     cavitation energy         =       0.02093417 Ry
     PV energy                 =      -0.08042916 Ry
     correction to one-el term =     191.85975007 Ry

     iteration # 14     ecut=    50.00 Ry     beta= 0.70
     Davidson diagonalization with overlap
     ethr =  5.08E-07,  avg # of iterations =  7.0

     negative rho (up, down):  2.639E-07 0.000E+00

     add environment contribution to local potential
     Polarization accuracy = 4.4E-12, # of iterations =  45

     total cpu time spent up to now is     8322.4 secs

     total energy              =   -3435.11034598 Ry
     estimated scf accuracy    <       0.00135145 Ry
     electrostatic embedding   =      -0.03434455 Ry
     cavitation energy         =       0.02079395 Ry
     PV energy                 =      -0.08059887 Ry
     correction to one-el term =     193.38079506 Ry

     iteration # 15     ecut=    50.00 Ry     beta= 0.70
     Davidson diagonalization with overlap
     ethr =  3.69E-07,  avg # of iterations =  6.0

     negative rho (up, down):  5.951E-06 0.000E+00

     add environment contribution to local potential
     Polarization accuracy = 3.1E-12, # of iterations =  45

     total cpu time spent up to now is     8843.5 secs

     total energy              =   -3435.11059211 Ry
     estimated scf accuracy    <       0.00044186 Ry
     electrostatic embedding   =      -0.03281736 Ry
     cavitation energy         =       0.02075098 Ry
     PV energy                 =      -0.08068697 Ry
     correction to one-el term =     194.01861407 Ry

     iteration # 16     ecut=    50.00 Ry     beta= 0.70
     Davidson diagonalization with overlap
     ethr =  1.21E-07,  avg # of iterations =  7.0

     negative rho (up, down):  3.786E-04 0.000E+00

     add environment contribution to local potential
     Polarization accuracy = 3.0E-12, # of iterations =  45

     total cpu time spent up to now is     9254.7 secs

     total energy              =   -3435.11072213 Ry
     estimated scf accuracy    <       0.00023796 Ry
     electrostatic embedding   =      -0.03175431 Ry
     cavitation energy         =       0.02071464 Ry
     PV energy                 =      -0.08074418 Ry
     correction to one-el term =     194.58714977 Ry

     iteration # 17     ecut=    50.00 Ry     beta= 0.70
     Davidson diagonalization with overlap
     ethr =  6.50E-08,  avg # of iterations =  7.0

     negative rho (up, down):  2.443E-05 0.000E+00

     add environment contribution to local potential
     Polarization accuracy = 3.8E-12, # of iterations =  45

     total cpu time spent up to now is     9752.2 secs

     total energy              =   -3435.11076524 Ry
     estimated scf accuracy    <       0.00003662 Ry
     electrostatic embedding   =      -0.03095230 Ry
     cavitation energy         =       0.02074073 Ry
     PV energy                 =      -0.08075279 Ry
     correction to one-el term =     194.92015916 Ry

     iteration # 18     ecut=    50.00 Ry     beta= 0.70
     Davidson diagonalization with overlap
     ethr =  1.00E-08,  avg # of iterations =  2.0

     negative rho (up, down):  5.987E-04 0.000E+00

     add environment contribution to local potential
     Polarization accuracy = 8.1E-12, # of iterations =  45

     total cpu time spent up to now is    11210.7 secs

     total energy              =   -3435.11077228 Ry
     estimated scf accuracy    <       0.00001357 Ry
     electrostatic embedding   =      -0.03110067 Ry
     cavitation energy         =       0.02075220 Ry
     PV energy                 =      -0.08072925 Ry
     correction to one-el term =     194.85736282 Ry

     iteration # 19     ecut=    50.00 Ry     beta= 0.70
     Davidson diagonalization with overlap
     ethr =  3.71E-09,  avg # of iterations =  2.0

     negative rho (up, down):  6.695E-04 0.000E+00

     add environment contribution to local potential
     Polarization accuracy = 3.7E-12, # of iterations =  46

     total cpu time spent up to now is    11668.6 secs

     total energy              =   -3435.11077666 Ry
     estimated scf accuracy    <       0.00000527 Ry
     electrostatic embedding   =      -0.03088184 Ry
     cavitation energy         =       0.02075260 Ry
     PV energy                 =      -0.08072868 Ry
     correction to one-el term =     194.96042414 Ry

     iteration # 20     ecut=    50.00 Ry     beta= 0.70
     Davidson diagonalization with overlap
     ethr =  1.44E-09,  avg # of iterations =  1.0

     negative rho (up, down):  2.070E-04 0.000E+00

     add environment contribution to local potential
     Polarization accuracy = 4.9E-12, # of iterations =  45

     total cpu time spent up to now is    12146.8 secs

     total energy              =   -3435.11077516 Ry
     estimated scf accuracy    <       0.00000181 Ry
     electrostatic embedding   =      -0.03083478 Ry
     cavitation energy         =       0.02075613 Ry
     PV energy                 =      -0.08072253 Ry
     correction to one-el term =     194.97244366 Ry

     iteration # 21     ecut=    50.00 Ry     beta= 0.70
     Davidson diagonalization with overlap
     ethr =  4.94E-10,  avg # of iterations =  2.0

     negative rho (up, down):  1.411E-04 0.000E+00

     add environment contribution to local potential
     Polarization accuracy = 5.6E-12, # of iterations =  45

     total cpu time spent up to now is    12612.0 secs

     total energy              =   -3435.11077531 Ry
     estimated scf accuracy    <       0.00000102 Ry
     electrostatic embedding   =      -0.03086002 Ry
     cavitation energy         =       0.02075978 Ry
     PV energy                 =      -0.08071147 Ry
     correction to one-el term =     194.93855728 Ry

     iteration # 22     ecut=    50.00 Ry     beta= 0.70
     Davidson diagonalization with overlap
     ethr =  2.79E-10,  avg # of iterations =  1.0

     negative rho (up, down):  1.661E-04 0.000E+00

     add environment contribution to local potential
     Polarization accuracy = 6.5E-12, # of iterations =  47

     total cpu time spent up to now is    13067.8 secs

     total energy              =   -3435.11077554 Ry
     estimated scf accuracy    <       0.00000023 Ry
     electrostatic embedding   =      -0.03086656 Ry
     cavitation energy         =       0.02075961 Ry
     PV energy                 =      -0.08070706 Ry
     correction to one-el term =     194.93017535 Ry

     iteration # 23     ecut=    50.00 Ry     beta= 0.70
     Davidson diagonalization with overlap
     ethr =  6.18E-11,  avg # of iterations =  1.5

     negative rho (up, down):  1.755E-04 0.000E+00

     add environment contribution to local potential
     Polarization accuracy = 4.4E-12, # of iterations =  45

     total cpu time spent up to now is    13588.4 secs

     total energy              =   -3435.11077582 Ry
     estimated scf accuracy    <       0.00000018 Ry
     electrostatic embedding   =      -0.03085900 Ry
     cavitation energy         =       0.02075959 Ry
     PV energy                 =      -0.08070640 Ry
     correction to one-el term =     194.93152209 Ry

     iteration # 24     ecut=    50.00 Ry     beta= 0.70
     Davidson diagonalization with overlap
     ethr =  4.93E-11,  avg # of iterations =  2.0

     negative rho (up, down):  1.506E-04 0.000E+00

     add environment contribution to local potential
     Polarization accuracy = 4.1E-12, # of iterations =  46

     total cpu time spent up to now is    14065.8 secs

     total energy              =   -3435.11077632 Ry
     estimated scf accuracy    <       0.00000011 Ry
     electrostatic embedding   =      -0.03085990 Ry
     cavitation energy         =       0.02075947 Ry
     PV energy                 =      -0.08070575 Ry
     correction to one-el term =     194.92685138 Ry

     iteration # 25     ecut=    50.00 Ry     beta= 0.70
     Davidson diagonalization with overlap
     ethr =  3.00E-11,  avg # of iterations =  1.0

     negative rho (up, down):  1.539E-04 0.000E+00

     add environment contribution to local potential
     Polarization accuracy = 4.3E-12, # of iterations =  45

     total cpu time spent up to now is    14536.2 secs

     total energy              =   -3435.11077646 Ry
     estimated scf accuracy    <       0.00000009 Ry
     electrostatic embedding   =      -0.03086517 Ry
     cavitation energy         =       0.02075951 Ry
     PV energy                 =      -0.08070592 Ry
     correction to one-el term =     194.92366863 Ry

     iteration # 26     ecut=    50.00 Ry     beta= 0.70
     Davidson diagonalization with overlap
     ethr =  2.57E-11,  avg # of iterations =  1.0

     negative rho (up, down):  1.507E-04 0.000E+00

     add environment contribution to local potential
     Polarization accuracy = 4.0E-12, # of iterations =  46

     total cpu time spent up to now is    14987.3 secs

     total energy              =   -3435.11077676 Ry
     estimated scf accuracy    <       0.00000008 Ry
     electrostatic embedding   =      -0.03086201 Ry
     cavitation energy         =       0.02075960 Ry
     PV energy                 =      -0.08070609 Ry
     correction to one-el term =     194.92368557 Ry

     iteration # 27     ecut=    50.00 Ry     beta= 0.70
     Davidson diagonalization with overlap
     ethr =  2.17E-11,  avg # of iterations =  1.0

     negative rho (up, down):  1.423E-04 0.000E+00

     add environment contribution to local potential
     Polarization accuracy = 4.0E-12, # of iterations =  46

     total cpu time spent up to now is    15482.6 secs

     total energy              =   -3435.11077716 Ry
     estimated scf accuracy    <       0.00000007 Ry
     electrostatic embedding   =      -0.03086032 Ry
     cavitation energy         =       0.02075970 Ry
     PV energy                 =      -0.08070612 Ry
     correction to one-el term =     194.92295878 Ry

     iteration # 28     ecut=    50.00 Ry     beta= 0.70
     Davidson diagonalization with overlap
     ethr =  2.04E-11,  avg # of iterations =  1.0

     negative rho (up, down):  1.325E-04 0.000E+00

     add environment contribution to local potential
     Polarization accuracy = 4.5E-12, # of iterations =  47

     total cpu time spent up to now is    15931.2 secs

     total energy              =   -3435.11077757 Ry
     estimated scf accuracy    <       0.00000007 Ry
     electrostatic embedding   =      -0.03086049 Ry
     cavitation energy         =       0.02075972 Ry
     PV energy                 =      -0.08070628 Ry
     correction to one-el term =     194.92211103 Ry

     iteration # 29     ecut=    50.00 Ry     beta= 0.70
     Davidson diagonalization with overlap
     ethr =  1.84E-11,  avg # of iterations =  1.0

     negative rho (up, down):  1.269E-04 0.000E+00

     add environment contribution to local potential
     Polarization accuracy = 4.1E-12, # of iterations =  45

     total cpu time spent up to now is    16387.8 secs

     total energy              =   -3435.11077841 Ry
     estimated scf accuracy    <       0.00000006 Ry
     electrostatic embedding   =      -0.03085851 Ry
     cavitation energy         =       0.02075981 Ry
     PV energy                 =      -0.08070637 Ry
     correction to one-el term =     194.92219373 Ry

     iteration # 30     ecut=    50.00 Ry     beta= 0.70
     Davidson diagonalization with overlap
     ethr =  1.66E-11,  avg # of iterations =  1.0

     negative rho (up, down):  1.293E-04 0.000E+00

     add environment contribution to local potential
     Polarization accuracy = 3.9E-12, # of iterations =  45

     total cpu time spent up to now is    18240.1 secs

     total energy              =   -3435.11077984 Ry
     estimated scf accuracy    <       0.00000006 Ry
     electrostatic embedding   =      -0.03085625 Ry
     cavitation energy         =       0.02075983 Ry
     PV energy                 =      -0.08070645 Ry
     correction to one-el term =     194.92236090 Ry

     iteration # 31     ecut=    50.00 Ry     beta= 0.70
     Davidson diagonalization with overlap
     ethr =  1.50E-11,  avg # of iterations =  2.0

     negative rho (up, down):  1.455E-04 0.000E+00

     add environment contribution to local potential
     Polarization accuracy = 3.7E-12, # of iterations =  45

     total cpu time spent up to now is    18706.1 secs

     total energy              =   -3435.11078293 Ry
     estimated scf accuracy    <       0.00000005 Ry
     electrostatic embedding   =      -0.03085388 Ry
     cavitation energy         =       0.02075974 Ry
     PV energy                 =      -0.08070635 Ry
     correction to one-el term =     194.92395975 Ry

     iteration # 32     ecut=    50.00 Ry     beta= 0.70
     Davidson diagonalization with overlap
     ethr =  1.29E-11,  avg # of iterations =  3.0

     negative rho (up, down):  1.510E-04 0.000E+00

     add environment contribution to local potential
     Polarization accuracy = 3.8E-12, # of iterations =  45

     total cpu time spent up to now is    19214.0 secs

     total energy              =   -3435.11078968 Ry
     estimated scf accuracy    <       0.00000003 Ry
     electrostatic embedding   =      -0.03085290 Ry
     cavitation energy         =       0.02075950 Ry
     PV energy                 =      -0.08070590 Ry
     correction to one-el term =     194.92611482 Ry

     iteration # 33     ecut=    50.00 Ry     beta= 0.70
     Davidson diagonalization with overlap
     ethr =  6.91E-12,  avg # of iterations =  2.0

     negative rho (up, down):  1.546E-04 0.000E+00

     add environment contribution to local potential
     Polarization accuracy = 6.2E-12, # of iterations =  45

     total cpu time spent up to now is    19696.8 secs

     total energy              =   -3435.11079132 Ry
     estimated scf accuracy    <       0.00000004 Ry
     electrostatic embedding   =      -0.03085486 Ry
     cavitation energy         =       0.02075952 Ry
     PV energy                 =      -0.08070607 Ry
     correction to one-el term =     194.92507279 Ry

     iteration # 34     ecut=    50.00 Ry     beta= 0.70
     Davidson diagonalization with overlap
     ethr =  6.91E-12,  avg # of iterations =  5.0

     negative rho (up, down):  1.516E-04 0.000E+00

     add environment contribution to local potential
     Polarization accuracy = 3.4E-12, # of iterations =  45

     total cpu time spent up to now is    20183.7 secs

     total energy              =   -3435.11079821 Ry
     estimated scf accuracy    <          7.0E-09 Ry
     electrostatic embedding   =      -0.03085330 Ry
     cavitation energy         =       0.02075946 Ry
     PV energy                 =      -0.08070600 Ry
     correction to one-el term =     194.92631073 Ry

     iteration # 35     ecut=    50.00 Ry     beta= 0.70
     Davidson diagonalization with overlap
     ethr =  1.91E-12,  avg # of iterations =  2.5

     negative rho (up, down):  1.469E-04 0.000E+00

     add environment contribution to local potential
     Polarization accuracy = 7.1E-12, # of iterations =  44

     total cpu time spent up to now is    20582.3 secs

     total energy              =   -3435.11080122 Ry
     estimated scf accuracy    <          3.0E-09 Ry
     electrostatic embedding   =      -0.03085676 Ry
     cavitation energy         =       0.02075957 Ry
     PV energy                 =      -0.08070627 Ry
     correction to one-el term =     194.92449333 Ry

     iteration # 36     ecut=    50.00 Ry     beta= 0.70
     Davidson diagonalization with overlap
     ethr =  8.15E-13,  avg # of iterations =  2.0

     negative rho (up, down):  1.444E-04 0.000E+00

     add environment contribution to local potential
     Polarization accuracy = 4.3E-12, # of iterations =  45

     total cpu time spent up to now is    21061.3 secs

     total energy              =   -3435.11080214 Ry
     estimated scf accuracy    <          1.7E-09 Ry
     electrostatic embedding   =      -0.03085707 Ry
     cavitation energy         =       0.02075961 Ry
     PV energy                 =      -0.08070637 Ry
     correction to one-el term =     194.92400511 Ry

     iteration # 37     ecut=    50.00 Ry     beta= 0.70
     Davidson diagonalization with overlap
     ethr =  4.57E-13,  avg # of iterations =  2.0

     negative rho (up, down):  1.455E-04 0.000E+00

     the potential shift due to the Gaussian-smeared nuclei is    -1.3426 ev

     total cpu time spent up to now is    21570.9 secs

     End of self-consistent calculation

          k = 0.2500 0.2752 0.0000 ( 34780 PWs)   bands (ev):

   -78.0030 -77.9907 -77.9672 -77.9548 -77.6350 -77.6239 -77.6223 -77.6114
   -77.5847 -77.5576 -77.5035 -77.4913 -48.3467 -48.3344 -48.2337 -48.2213
   -48.0591 -47.9833 -47.9710 -47.9692 -47.9226 -47.9099 -47.9058 -47.8936
   -47.8389 -47.8314 -47.8264 -47.8188 -47.7931 -47.7808 -47.7353 -47.7323
   -47.6083 -47.5958 -47.5246 -47.5138 -47.5011 -47.4707 -47.4638 -47.4513
   -47.4479 -47.4356 -47.4354 -47.4284 -47.3841 -47.3680 -47.3214 -47.2784
   -24.2627 -24.1732 -24.0183 -23.8809 -23.8666 -23.6880 -23.6176 -23.5814
   -23.2878 -23.1669 -23.0713 -23.0308 -23.0154 -22.9574 -22.9175 -22.8712
   -22.8494 -22.8372 -22.8237 -22.6949 -22.6882 -22.6676 -22.5912 -22.5797
   -22.4738 -22.3572 -22.1714 -22.0402 -12.3415 -12.3213 -12.2841 -12.0914
   -11.9567 -11.7817 -11.7191 -11.7056 -11.6332 -11.4938 -11.4322 -11.3886
   -11.3306 -11.2923 -11.2289 -11.1957 -11.1118 -11.0039 -10.9979 -10.8747
   -10.8517 -10.8094 -10.7325 -10.6571 -10.4154 -10.3722 -10.2898 -10.1390
   -10.0871 -10.0550  -9.8928  -9.8812  -9.8171  -9.6418  -9.6296  -9.5014
    -9.4844  -9.3989  -9.3832  -9.2488  -9.2093  -9.0880  -9.0204  -8.9547
    -8.9366  -8.7493  -8.7145  -8.5795  -8.4901  -8.4037  -8.3779  -8.3712
    -8.3106  -8.2823  -8.2587  -8.2371  -8.1016  -8.0446  -8.0311  -7.8762
    -7.8659  -7.8003  -7.6658  -7.6310  -7.5354  -7.4465  -7.3291  -7.3268
    -7.1919  -7.1328  -7.0659  -7.0037  -6.9607  -6.9203  -6.7752  -6.7615
    -6.6632  -6.5802  -6.5623  -6.5265  -6.4771  -6.3783  -6.2908  -6.2606
    -5.3034  -5.2106  -5.0909  -5.0516  -5.0429  -5.0324  -4.9834  -4.9139
    -4.9061  -4.8907  -4.8691  -4.8497  -4.7980  -4.7447  -4.7040  -4.5933
    -4.5481  -4.5166  -4.4696  -4.4440  -4.2987  -4.2242  -4.2143  -4.1061
    -4.0398  -3.9271  -3.7734  -3.7342  -3.4486  -3.3924  -3.3525  -3.2223
    -3.1429  -3.1125  -2.9287  -2.8072  -2.5194  -2.1682  -1.9792  -1.9048
    -1.8675  -1.8030  -1.2605  -1.0185  -0.8653  -0.7074  -0.4605  -0.3028
    -0.2451  -0.2101  -0.1924  -0.1492   0.1742   0.3073   0.3410   0.7180
     0.8162   0.9143   0.9750   1.1003

          k =-0.2500 0.2752 0.0000 ( 34780 PWs)   bands (ev):

   -78.0030 -77.9907 -77.9672 -77.9548 -77.6350 -77.6239 -77.6223 -77.6114
   -77.5847 -77.5576 -77.5035 -77.4913 -48.3467 -48.3344 -48.2337 -48.2213
   -48.0591 -47.9833 -47.9710 -47.9692 -47.9226 -47.9099 -47.9058 -47.8936
   -47.8389 -47.8314 -47.8264 -47.8188 -47.7931 -47.7808 -47.7353 -47.7323
   -47.6081 -47.5955 -47.5246 -47.5145 -47.5019 -47.4708 -47.4633 -47.4507
   -47.4479 -47.4356 -47.4354 -47.4284 -47.3841 -47.3680 -47.3214 -47.2784
   -24.2628 -24.1733 -24.0187 -23.8809 -23.8664 -23.6884 -23.6168 -23.5800
   -23.2873 -23.1686 -23.0736 -23.0313 -23.0109 -22.9603 -22.9277 -22.8703
   -22.8418 -22.8333 -22.8239 -22.6928 -22.6862 -22.6690 -22.5937 -22.5812
   -22.4736 -22.3572 -22.1713 -22.0402 -12.3528 -12.3298 -12.2851 -12.0661
   -11.9294 -11.7886 -11.7311 -11.7213 -11.6373 -11.5016 -11.4363 -11.3618
   -11.3141 -11.3006 -11.2410 -11.1897 -11.1169 -11.0118 -10.9692 -10.9309
   -10.8239 -10.8188 -10.7355 -10.6296 -10.4463 -10.4074 -10.2916 -10.1026
   -10.0734 -10.0139  -9.9355  -9.8735  -9.8351  -9.5928  -9.5681  -9.5091
    -9.4998  -9.4151  -9.3599  -9.3053  -9.2414  -9.0928  -9.0028  -8.9966
    -8.9091  -8.7289  -8.7130  -8.5750  -8.5040  -8.4868  -8.4043  -8.3811
    -8.2809  -8.2726  -8.2143  -8.1933  -8.0825  -8.0560  -7.9730  -7.8974
    -7.8621  -7.8157  -7.7052  -7.6489  -7.5687  -7.4284  -7.3158  -7.2958
    -7.1683  -7.1506  -7.0818  -7.0348  -6.9893  -6.8680  -6.8060  -6.7550
    -6.6527  -6.6124  -6.5755  -6.4937  -6.4777  -6.3223  -6.2959  -6.2532
    -5.3016  -5.2063  -5.1396  -5.0654  -5.0594  -4.9793  -4.9718  -4.9147
    -4.9115  -4.9013  -4.8741  -4.8403  -4.7960  -4.7705  -4.7120  -4.5622
    -4.5583  -4.5204  -4.4514  -4.4425  -4.3369  -4.2253  -4.2198  -4.1046
    -4.0029  -3.9317  -3.7768  -3.7373  -3.4440  -3.3962  -3.3554  -3.2153
    -3.1409  -3.1161  -2.9319  -2.8050  -2.5194  -2.1673  -1.9786  -1.9015
    -1.8675  -1.8029  -1.2620  -1.0171  -0.8655  -0.7063  -0.4555  -0.3021
    -0.2465  -0.2056  -0.1983  -0.1505   0.1722   0.3046   0.3449   0.7244
     0.8204   0.9091   0.9648   1.0981

     the Fermi energy is    -4.1553 ev

!    total energy              =   -3435.11080248 Ry
     estimated scf accuracy    <          7.8E-10 Ry
     smearing contrib. (-TS)   =       0.05531275 Ry
     internal energy E=F+TS    =   -3435.16611523 Ry

     The total energy is F=E-TS. E is the sum of the following terms:
     one-electron contribution =  -25555.89478581 Ry
     hartree contribution      =   12759.10069183 Ry
     xc contribution           =    -448.20268587 Ry
     ewald contribution        =    9881.51824689 Ry
     one-center paw contrib.   =    -266.52046015 Ry
     electrostatic embedding   =      -0.03085797 Ry
     cavitation energy         =       0.02075964 Ry
     PV energy                 =      -0.08070642 Ry
     correction to one-el term =     194.92368262 Ry

     WARNING: you are using the parabolic pbc correction;
              the potential shift above must be added to 
              band and Fermi energies.

     convergence has been achieved in  37 iterations

     negative rho (up, down):  1.455E-04 0.000E+00

     Forces acting on atoms (cartesian axes, Ry/au):

     atom    1 type  1   force =     0.02628892    0.00451002   -0.02049639
     atom    2 type  1   force =     0.03681892   -0.00187633   -0.01786297
     atom    3 type  1   force =     0.00214871   -0.10820443    0.09067550
     atom    4 type  1   force =    -0.00041212    0.00054851   -0.01763685
     atom    5 type  2   force =     0.03084598   -0.00598331    0.00293971
     atom    6 type  2   force =    -0.03181310   -0.00700326   -0.00066850
     atom    7 type  1   force =    -0.00159663    0.04819210    0.00156173
     atom    8 type  1   force =     0.00218189    0.08211399    0.00373626
     atom    9 type  2   force =     0.01301040    0.00007030    0.00402670
     atom   10 type  2   force =    -0.00846788    0.00331332    0.00282945
     atom   11 type  1   force =    -0.00134917   -0.04049528   -0.00100861
     atom   12 type  1   force =     0.00154398   -0.07396496    0.00015722
     atom   13 type  1   force =     0.00073685    0.00012516   -0.00801373
     atom   14 type  1   force =    -0.00052779    0.00101118   -0.00337275
     atom   15 type  1   force =    -0.00090518   -0.00057069   -0.00427466
     atom   16 type  1   force =    -0.00289833   -0.00060094    0.02518815
     atom   17 type  2   force =    -0.01471114    0.00159256    0.00000000
     atom   18 type  2   force =     0.01498735   -0.00118416    0.00000000
     atom   19 type  1   force =    -0.00291286   -0.08850633    0.00000000
     atom   20 type  1   force =     0.00270279   -0.04525919    0.00000000
     atom   21 type  2   force =    -0.01211094    0.00067555    0.00000000
     atom   22 type  2   force =     0.01401722   -0.00107165    0.00000000
     atom   23 type  1   force =    -0.00173229    0.08862825    0.00000000
     atom   24 type  1   force =     0.00199254    0.04669753    0.00000000
     atom   25 type  1   force =    -0.00090518   -0.00057069    0.00427466
     atom   26 type  1   force =    -0.00289833   -0.00060094   -0.02518815
     atom   27 type  1   force =     0.00073685    0.00012516    0.00801373
     atom   28 type  1   force =    -0.00052779    0.00101118    0.00337275
     atom   29 type  2   force =     0.03084598   -0.00598331   -0.00293971
     atom   30 type  2   force =    -0.03181310   -0.00700326    0.00066850
     atom   31 type  1   force =    -0.00159663    0.04819210   -0.00156173
     atom   32 type  1   force =     0.00218189    0.08211399   -0.00373626
     atom   33 type  2   force =     0.01301040    0.00007030   -0.00402670
     atom   34 type  2   force =    -0.00846788    0.00331332   -0.00282945
     atom   35 type  1   force =    -0.00134917   -0.04049528    0.00100861
     atom   36 type  1   force =     0.00154398   -0.07396496   -0.00015722
     atom   37 type  1   force =     0.00214871   -0.10820443   -0.09067550
     atom   38 type  1   force =    -0.00041212    0.00054851    0.01763685
     atom   39 type  1   force =     0.02628892    0.00451002    0.02049639
     atom   40 type  1   force =     0.03681892   -0.00187633    0.01786297
     atom   41 type  3   force =    -0.02675834   -0.00435870    0.01106336
     atom   42 type  3   force =    -0.02675834   -0.00435870   -0.01106336
     atom   43 type  3   force =    -0.03767261    0.00180760    0.01037075
     atom   44 type  3   force =    -0.03767261    0.00180760   -0.01037075
     atom   45 type  3   force =    -0.00229082    0.10057943   -0.07695093
     atom   46 type  3   force =    -0.00229082    0.10057943    0.07695093
     The non-local contrib.  to forces
     atom    1 type  1   force =     1.68850583    0.31557018    0.16717259
     atom    2 type  1   force =     1.72296042   -0.05759961    0.49305348
     atom    3 type  1   force =    -0.01186877    1.45881607   -0.12821103
     atom    4 type  1   force =     0.00276753    0.02170257    1.05250892
     atom    5 type  2   force =     0.02720650    0.00115658   -0.00847115
     atom    6 type  2   force =    -0.02521576    0.00306923   -0.00384451
     atom    7 type  1   force =    -0.00156729   -0.11752169   -0.00079131
     atom    8 type  1   force =    -0.02162140   -0.07794979   -0.02679563
     atom    9 type  2   force =     0.00621356    0.00238402    0.03375716
     atom   10 type  2   force =    -0.00143661    0.00138558    0.02384590
     atom   11 type  1   force =    -0.03462421    0.09233036    0.05726086
     atom   12 type  1   force =     0.01264090    0.04116632    0.02004843
     atom   13 type  1   force =     0.01703064   -0.00437810    0.06980367
     atom   14 type  1   force =    -0.00107563    0.04812913    0.00062545
     atom   15 type  1   force =    -0.00207951   -0.01230664   -0.07680543
     atom   16 type  1   force =     0.01486317   -0.01113059    0.07381863
     atom   17 type  2   force =     0.00675002    0.00153558    0.00000000
     atom   18 type  2   force =    -0.00374230   -0.00020271    0.00000000
     atom   19 type  1   force =     0.04162501    0.02633607    0.00000000
     atom   20 type  1   force =    -0.03751644    0.08851609    0.00000000
     atom   21 type  2   force =     0.02450170    0.00117787    0.00000000
     atom   22 type  2   force =    -0.00856268   -0.00051364    0.00000000
     atom   23 type  1   force =     0.02506837   -0.02504157    0.00000000
     atom   24 type  1   force =    -0.01954415   -0.08813718    0.00000000
     atom   25 type  1   force =    -0.00207951   -0.01230664    0.07680543
     atom   26 type  1   force =     0.01486317   -0.01113059   -0.07381863
     atom   27 type  1   force =     0.01703064   -0.00437810   -0.06980367
     atom   28 type  1   force =    -0.00107563    0.04812913   -0.00062545
     atom   29 type  2   force =     0.02720650    0.00115658    0.00847115
     atom   30 type  2   force =    -0.02521576    0.00306923    0.00384451
     atom   31 type  1   force =    -0.00156729   -0.11752169    0.00079131
     atom   32 type  1   force =    -0.02162140   -0.07794979    0.02679563
     atom   33 type  2   force =     0.00621356    0.00238402   -0.03375716
     atom   34 type  2   force =    -0.00143661    0.00138558   -0.02384590
     atom   35 type  1   force =    -0.03462421    0.09233036   -0.05726086
     atom   36 type  1   force =     0.01264090    0.04116632   -0.02004843
     atom   37 type  1   force =    -0.01186877    1.45881607    0.12821103
     atom   38 type  1   force =     0.00276753    0.02170257   -1.05250892
     atom   39 type  1   force =     1.68850583    0.31557018   -0.16717259
     atom   40 type  1   force =     1.72296042   -0.05759961   -0.49305348
     atom   41 type  3   force =    -0.08837229   -0.01854322    0.04764001
     atom   42 type  3   force =    -0.08837229   -0.01854322   -0.04764001
     atom   43 type  3   force =    -0.09055773    0.00298115    0.03225665
     atom   44 type  3   force =    -0.09055773    0.00298115   -0.03225665
     atom   45 type  3   force =     0.00178781   -0.10220904    0.08448479
     atom   46 type  3   force =     0.00178781   -0.10220904   -0.08448479
     The ionic contribution  to forces
     atom    1 type  1   force =    -2.26805999   -0.16598366  -95.78677706
     atom    2 type  1   force =    -3.07148255    0.23143284  -96.95908683
     atom    3 type  1   force =     0.21078477   -3.43534910  -91.92927177
     atom    4 type  1   force =    -0.18442631   -0.23157494  -94.21419907
     atom    5 type  2   force =    -2.82565135   -0.79935304 -174.14550314
     atom    6 type  2   force =     2.89963463   -0.90822879 -172.91430403
     atom    7 type  1   force =    -0.11728500    0.53506576  -64.10520455
     atom    8 type  1   force =     0.14427715    0.71126883  -62.89743995
     atom    9 type  2   force =     1.13594288    1.15198586 -167.91466920
     atom   10 type  2   force =    -1.24404352    0.62859196 -173.36754509
     atom   11 type  1   force =    -0.16168816   -0.17576589  -66.06289092
     atom   12 type  1   force =     0.26125218   -0.29735085  -64.13203360
     atom   13 type  1   force =    -0.00017695   -0.15576274  -39.09815502
     atom   14 type  1   force =    -0.13677019   -0.24347816  -37.93051359
     atom   15 type  1   force =     0.01081247    0.05854831  -24.76894629
     atom   16 type  1   force =    -0.19594950    0.11075034  -26.47982837
     atom   17 type  2   force =    -0.15565403    0.12227666   -0.00044718
     atom   18 type  2   force =     0.23731804    0.10768701   -0.00045425
     atom   19 type  1   force =    -0.40744909   -1.11810590   -0.00007981
     atom   20 type  1   force =     0.40024116   -0.65512464   -0.00008233
     atom   21 type  2   force =     0.14214905   -0.03793889   -0.00025333
     atom   22 type  2   force =     0.22980895   -0.13500508   -0.00026122
     atom   23 type  1   force =    -0.33780499    1.09005469   -0.00007845
     atom   24 type  1   force =     0.30905934    0.71944419   -0.00008133
     atom   25 type  1   force =     0.01080633    0.05854804   24.76872084
     atom   26 type  1   force =    -0.19595195    0.11075171   26.47967070
     atom   27 type  1   force =    -0.00017890   -0.15576196   39.09844770
     atom   28 type  1   force =    -0.13676843   -0.24348154   37.93083649
     atom   29 type  2   force =    -2.82559415   -0.79935631  174.14574421
     atom   30 type  2   force =     2.89957639   -0.90823284  172.91455004
     atom   31 type  1   force =    -0.11728191    0.53503455   64.10526657
     atom   32 type  1   force =     0.14427635    0.71123554   62.89750069
     atom   33 type  2   force =     1.13593869    1.15199027  167.91479127
     atom   34 type  2   force =    -1.24405254    0.62859358  173.36767311
     atom   35 type  1   force =    -0.16168664   -0.17573373   66.06295178
     atom   36 type  1   force =     0.26125297   -0.29731672   64.13209550
     atom   37 type  1   force =     0.21078825   -3.43563261   91.92929549
     atom   38 type  1   force =    -0.18442461   -0.23157451   94.21437586
     atom   39 type  1   force =    -2.26814495   -0.16599717   95.78687678
     atom   40 type  1   force =    -3.07154502    0.23143523   96.95920399
     atom   41 type  3   force =     2.74050945    0.65826550  -16.56636949
     atom   42 type  3   force =     2.74059923    0.65828359   16.56639983
     atom   43 type  3   force =     2.58517458   -0.04854598  -16.32457722
     atom   44 type  3   force =     2.58524119   -0.04854790   16.32458467
     atom   45 type  3   force =     0.00831535    2.32884080  -17.69713073
     atom   46 type  3   force =     0.00831132    2.32911771   17.69719829
     The local contribution  to forces
     atom    1 type  1   force =     0.58560247   -0.10415795   95.62926157
     atom    2 type  1   force =     1.38477397   -0.16409070   96.42766564
     atom    3 type  1   force =    -0.20394776    1.83686325   92.17450433
     atom    4 type  1   force =     0.18167833    0.20103394   93.10366921
     atom    5 type  2   force =     2.86314644    0.77558128  174.15220790
     atom    6 type  2   force =    -2.93683639    0.87989122  172.90650728
     atom    7 type  1   force =     0.12990012   -0.37011987   64.11485434
     atom    8 type  1   force =    -0.13150102   -0.55043588   62.93227117
     atom    9 type  2   force =    -1.13693437   -1.13574226  167.90934824
     atom   10 type  2   force =     1.23975537   -0.61636173  173.32587525
     atom   11 type  1   force =     0.20446637    0.04864950   66.00340507
     atom   12 type  1   force =    -0.27985265    0.18603587   64.10542288
     atom   13 type  1   force =    -0.01643957    0.15814514   39.02276951
     atom   14 type  1   force =     0.13775804    0.19563719   37.92117217
     atom   15 type  1   force =    -0.00998670   -0.04606758   24.84171609
     atom   16 type  1   force =     0.17863955   -0.09959823   26.43063297
     atom   17 type  2   force =     0.13380837   -0.12345188   -0.00584966
     atom   18 type  2   force =    -0.21814312   -0.10966761   -0.00583909
     atom   19 type  1   force =     0.36437116    1.00173113   -0.00248065
     atom   20 type  1   force =    -0.36143432    0.52090288   -0.00246208
     atom   21 type  2   force =    -0.17609870    0.03851635   -0.00609114
     atom   22 type  2   force =    -0.20983586    0.13557781   -0.00606010
     atom   23 type  1   force =     0.31222117   -0.97513225   -0.00248379
     atom   24 type  1   force =    -0.28868942   -0.58443747   -0.00246475
     atom   25 type  1   force =    -0.00999877   -0.04606762  -24.84347846
     atom   26 type  1   force =     0.17864068   -0.09960117  -26.43236175
     atom   27 type  1   force =    -0.01643748    0.15815061  -39.02454245
     atom   28 type  1   force =     0.13775992    0.19563797  -37.92291283
     atom   29 type  2   force =     2.86316868    0.77558467 -174.15832990
     atom   30 type  2   force =    -2.93685675    0.87990196 -172.91265135
     atom   31 type  1   force =     0.12990616   -0.37012536  -64.11732383
     atom   32 type  1   force =    -0.13150542   -0.55043711  -62.93474475
     atom   33 type  2   force =    -1.13695201   -1.13577391 -167.91516856
     atom   34 type  2   force =     1.23976524   -0.61636439 -173.33166651
     atom   35 type  1   force =     0.20448088    0.04865143  -66.00587662
     atom   36 type  1   force =    -0.27986548    0.18603346  -64.10789901
     atom   37 type  1   force =    -0.20394978    1.83699718  -92.17827201
     atom   38 type  1   force =     0.18167521    0.20102722  -93.10762710
     atom   39 type  1   force =     0.58562156   -0.10417138  -95.63083240
     atom   40 type  1   force =     1.38479894   -0.16409284  -96.42918942
     atom   41 type  3   force =    -2.68865347   -0.64123735   16.54897684
     atom   42 type  3   force =    -2.68865347   -0.64123735  -16.54897684
     atom   43 type  3   force =    -2.54221968    0.05093369   16.30978797
     atom   44 type  3   force =    -2.54221968    0.05093369  -16.30978797
     atom   45 type  3   force =    -0.01530363   -2.13372326   17.55423741
     atom   46 type  3   force =    -0.01530363   -2.13372326  -17.55423741
     The core correction contribution to forces
     atom    1 type  1   force =    -0.01731283   -0.00322681   -0.00177809
     atom    2 type  1   force =    -0.01775547    0.00060172   -0.00482488
     atom    3 type  1   force =     0.00008298   -0.01341522   -0.00044780
     atom    4 type  1   force =    -0.00004515   -0.00025356   -0.01060057
     atom    5 type  2   force =     0.00000000    0.00000000    0.00000000
     atom    6 type  2   force =     0.00000000    0.00000000    0.00000000
     atom    7 type  1   force =     0.00000230    0.00024600   -0.00002538
     atom    8 type  1   force =     0.00028508   -0.00050223    0.00020025
     atom    9 type  2   force =     0.00000000    0.00000000    0.00000000
     atom   10 type  2   force =     0.00000000    0.00000000    0.00000000
     atom   11 type  1   force =     0.00035500   -0.00000839   -0.00054144
     atom   12 type  1   force =    -0.00007831    0.00082148   -0.00026426
     atom   13 type  1   force =    -0.00016319    0.00006942   -0.00054614
     atom   14 type  1   force =     0.00001521   -0.00056833    0.00027528
     atom   15 type  1   force =     0.00003784    0.00016310    0.00037507
     atom   16 type  1   force =    -0.00015069    0.00010488   -0.00152746
     atom   17 type  2   force =     0.00000000    0.00000000    0.00000000
     atom   18 type  2   force =     0.00000000    0.00000000    0.00000000
     atom   19 type  1   force =    -0.00038166    0.00119753   -0.00000224
     atom   20 type  1   force =     0.00034260    0.00012294   -0.00000216
     atom   21 type  2   force =     0.00000000    0.00000000    0.00000000
     atom   22 type  2   force =     0.00000000    0.00000000    0.00000000
     atom   23 type  1   force =    -0.00021409   -0.00118854   -0.00000221
     atom   24 type  1   force =     0.00017023   -0.00015752   -0.00000215
     atom   25 type  1   force =     0.00003782    0.00016319   -0.00037719
     atom   26 type  1   force =    -0.00015071    0.00010488    0.00152533
     atom   27 type  1   force =    -0.00016319    0.00006943    0.00054389
     atom   28 type  1   force =     0.00001521   -0.00056840   -0.00027763
     atom   29 type  2   force =     0.00000000    0.00000000    0.00000000
     atom   30 type  2   force =     0.00000000    0.00000000    0.00000000
     atom   31 type  1   force =     0.00000238    0.00024604    0.00002338
     atom   32 type  1   force =     0.00028502   -0.00050225   -0.00020232
     atom   33 type  2   force =     0.00000000    0.00000000    0.00000000
     atom   34 type  2   force =     0.00000000    0.00000000    0.00000000
     atom   35 type  1   force =     0.00035513   -0.00000839    0.00053934
     atom   36 type  1   force =    -0.00007838    0.00082153    0.00026221
     atom   37 type  1   force =     0.00008296   -0.01341699    0.00044380
     atom   38 type  1   force =    -0.00004513   -0.00025373    0.01059608
     atom   39 type  1   force =    -0.01731361   -0.00322699    0.00177561
     atom   40 type  1   force =    -0.01775634    0.00060175    0.00482284
     atom   41 type  3   force =     0.00000000    0.00000000    0.00000000
     atom   42 type  3   force =     0.00000000    0.00000000    0.00000000
     atom   43 type  3   force =     0.00000000    0.00000000    0.00000000
     atom   44 type  3   force =     0.00000000    0.00000000    0.00000000
     atom   45 type  3   force =     0.00000000    0.00000000    0.00000000
     atom   46 type  3   force =     0.00000000    0.00000000    0.00000000
     The Hubbard contrib.    to forces
     atom    1 type  1   force =     0.00000000    0.00000000    0.00000000
     atom    2 type  1   force =     0.00000000    0.00000000    0.00000000
     atom    3 type  1   force =     0.00000000    0.00000000    0.00000000
     atom    4 type  1   force =     0.00000000    0.00000000    0.00000000
     atom    5 type  2   force =     0.00000000    0.00000000    0.00000000
     atom    6 type  2   force =     0.00000000    0.00000000    0.00000000
     atom    7 type  1   force =     0.00000000    0.00000000    0.00000000
     atom    8 type  1   force =     0.00000000    0.00000000    0.00000000
     atom    9 type  2   force =     0.00000000    0.00000000    0.00000000
     atom   10 type  2   force =     0.00000000    0.00000000    0.00000000
     atom   11 type  1   force =     0.00000000    0.00000000    0.00000000
     atom   12 type  1   force =     0.00000000    0.00000000    0.00000000
     atom   13 type  1   force =     0.00000000    0.00000000    0.00000000
     atom   14 type  1   force =     0.00000000    0.00000000    0.00000000
     atom   15 type  1   force =     0.00000000    0.00000000    0.00000000
     atom   16 type  1   force =     0.00000000    0.00000000    0.00000000
     atom   17 type  2   force =     0.00000000    0.00000000    0.00000000
     atom   18 type  2   force =     0.00000000    0.00000000    0.00000000
     atom   19 type  1   force =     0.00000000    0.00000000    0.00000000
     atom   20 type  1   force =     0.00000000    0.00000000    0.00000000
     atom   21 type  2   force =     0.00000000    0.00000000    0.00000000
     atom   22 type  2   force =     0.00000000    0.00000000    0.00000000
     atom   23 type  1   force =     0.00000000    0.00000000    0.00000000
     atom   24 type  1   force =     0.00000000    0.00000000    0.00000000
     atom   25 type  1   force =     0.00000000    0.00000000    0.00000000
     atom   26 type  1   force =     0.00000000    0.00000000    0.00000000
     atom   27 type  1   force =     0.00000000    0.00000000    0.00000000
     atom   28 type  1   force =     0.00000000    0.00000000    0.00000000
     atom   29 type  2   force =     0.00000000    0.00000000    0.00000000
     atom   30 type  2   force =     0.00000000    0.00000000    0.00000000
     atom   31 type  1   force =     0.00000000    0.00000000    0.00000000
     atom   32 type  1   force =     0.00000000    0.00000000    0.00000000
     atom   33 type  2   force =     0.00000000    0.00000000    0.00000000
     atom   34 type  2   force =     0.00000000    0.00000000    0.00000000
     atom   35 type  1   force =     0.00000000    0.00000000    0.00000000
     atom   36 type  1   force =     0.00000000    0.00000000    0.00000000
     atom   37 type  1   force =     0.00000000    0.00000000    0.00000000
     atom   38 type  1   force =     0.00000000    0.00000000    0.00000000
     atom   39 type  1   force =     0.00000000    0.00000000    0.00000000
     atom   40 type  1   force =     0.00000000    0.00000000    0.00000000
     atom   41 type  3   force =     0.00000000    0.00000000    0.00000000
     atom   42 type  3   force =     0.00000000    0.00000000    0.00000000
     atom   43 type  3   force =     0.00000000    0.00000000    0.00000000
     atom   44 type  3   force =     0.00000000    0.00000000    0.00000000
     atom   45 type  3   force =     0.00000000    0.00000000    0.00000000
     atom   46 type  3   force =     0.00000000    0.00000000    0.00000000
     The SCF correction term to forces
     atom    1 type  1   force =     0.00002546    0.00000373    0.00000377
     atom    2 type  1   force =    -0.00002020    0.00000302    0.00000022
     atom    3 type  1   force =     0.00001476   -0.00000233    0.00000841
     atom    4 type  1   force =    -0.00001199   -0.00000177    0.00000375
     atom    5 type  2   force =    -0.00000733   -0.00000090    0.00000542
     atom    6 type  2   force =     0.00000523   -0.00000310    0.00002783
     atom    7 type  1   force =    -0.00000729   -0.00000263    0.00000439
     atom    8 type  1   force =     0.00000656   -0.00000630    0.00001460
     atom    9 type  2   force =     0.00002999    0.00000284    0.00002333
     atom   10 type  2   force =    -0.00002952    0.00000193    0.00002568
     atom   11 type  1   force =    -0.00000699    0.00000252    0.00000288
     atom   12 type  1   force =     0.00000679    0.00000688    0.00001255
     atom   13 type  1   force =     0.00000474   -0.00000017    0.00001909
     atom   14 type  1   force =    -0.00000469   -0.00000009    0.00000176
     atom   15 type  1   force =     0.00001203    0.00000016    0.00001032
     atom   16 type  1   force =    -0.00001155    0.00000002    0.00001241
     atom   17 type  2   force =     0.00001222    0.00000020    0.00001150
     atom   18 type  2   force =    -0.00001391   -0.00000006    0.00001166
     atom   19 type  1   force =    -0.00001703    0.00000452    0.00000414
     atom   20 type  1   force =     0.00001735   -0.00000731    0.00000405
     atom   21 type  2   force =    -0.00001728    0.00000010    0.00001176
     atom   22 type  2   force =     0.00001453    0.00000009    0.00001153
     atom   23 type  1   force =    -0.00001706   -0.00000445    0.00000419
     atom   24 type  1   force =     0.00001743    0.00000738    0.00000410
     atom   25 type  1   force =     0.00001212    0.00000022   -0.00000631
     atom   26 type  1   force =    -0.00001165    0.00000009   -0.00000888
     atom   27 type  1   force =     0.00000490   -0.00000026   -0.00001960
     atom   28 type  1   force =    -0.00000485   -0.00000019   -0.00000220
     atom   29 type  2   force =    -0.00000712   -0.00000122   -0.00001806
     atom   30 type  2   force =     0.00000499   -0.00000347   -0.00004040
     atom   31 type  1   force =    -0.00000710   -0.00000292   -0.00000901
     atom   32 type  1   force =     0.00000637   -0.00000660   -0.00001923
     atom   33 type  2   force =     0.00003054    0.00000318   -0.00003674
     atom   34 type  2   force =    -0.00003007    0.00000228   -0.00003917
     atom   35 type  1   force =    -0.00000680    0.00000292   -0.00000752
     atom   36 type  1   force =     0.00000661    0.00000728   -0.00001718
     atom   37 type  1   force =     0.00001491   -0.00000249   -0.00001105
     atom   38 type  1   force =    -0.00001216   -0.00000186   -0.00000711
     atom   39 type  1   force =     0.00002551    0.00000375   -0.00000462
     atom   40 type  1   force =    -0.00002036    0.00000307   -0.00000112
     atom   41 type  3   force =     0.00000123    0.00000018    0.00000096
     atom   42 type  3   force =     0.00000130    0.00000020   -0.00000104
     atom   43 type  3   force =    -0.00000009    0.00000032   -0.00000063
     atom   44 type  3   force =    -0.00000007    0.00000033    0.00000053
     atom   45 type  3   force =     0.00000210   -0.00000035    0.00000078
     atom   46 type  3   force =     0.00000212   -0.00000035   -0.00000097

     Total force =     0.377174     Total SCF correction =     0.000142

     BFGS Geometry Optimization
     Energy error            =      0.0E+00 Ry
     Gradient error          =      1.1E-01 Ry/Bohr

     number of scf cycles    =   1
     number of bfgs steps    =   0

     energy             new  =   -3435.1108024790 Ry

     new trust radius        =       0.1411908690 bohr
     new conv_thr            =       0.0000000010 Ry


ATOMIC_POSITIONS (crystal)
O            -0.0187804709        0.4772248153        0.2702795585
O             0.5102966461        0.4983850940        0.2680640778
O            -0.0020867901       -0.0025659943        0.2991521744
O             0.4994775501       -0.0004015084        0.3090964315
Ru            0.2541839334        0.0005060473        0.3555992234
Ru            0.7430342407        0.0005854784        0.3562287671
O             0.2489408289        0.3141025255        0.3569721941
O             0.7493851412        0.3125843871        0.3582807435
Ru           -0.0017313113        0.5001827191        0.3586616931
Ru            0.5002645558        0.5004588526        0.3549200773
O             0.2455570929        0.6869614778        0.3545496747
O             0.7521667763        0.6884437110        0.3570768718
O             0.0012122296        0.0000933726        0.4118799906
O             0.4974397021       -0.0029933570        0.4121828274
O             0.0004571905        0.5006617450        0.4459941152
O             0.5002158979        0.5020903869        0.4423252230
Ru            0.0005138770       -0.0001539884        0.5000010000
Ru            0.4985963694        0.0001300029        0.5000010000
O             0.2506979857        0.1887151002        0.5000010000
O             0.7487992503        0.1872723111        0.5000010000
Ru            0.2540326456        0.5003622211        0.5000010000
Ru            0.7447530771        0.5002465612        0.5000010000
O             0.2499406641        0.8119904833        0.5000010000
O             0.7498303176        0.8130569162        0.5000010000
O             0.0004571905        0.5006617450        0.5540068848
O             0.5002158979        0.5020903869        0.5576757770
O             0.0012122296        0.0000933726        0.5881210094
O             0.4974397021       -0.0029933570        0.5878181726
Ru            0.2541839334        0.0005060473        0.6444017766
Ru            0.7430342407        0.0005854784        0.6437722329
O             0.2489408289        0.3141025255        0.6430288059
O             0.7493851412        0.3125843871        0.6417202565
Ru           -0.0017313113        0.5001827191        0.6413393069
Ru            0.5002645558        0.5004588526        0.6450809227
O             0.2455570929        0.6869614778        0.6454513253
O             0.7521667763        0.6884437110        0.6429241282
O            -0.0020867901       -0.0025659943        0.7008498256
O             0.4994775501       -0.0004015084        0.6909055685
O            -0.0187804709        0.4772248153        0.7297214415
O             0.5102966461        0.4983850940        0.7319369222
H             0.1101903776        0.5065239157        0.2510271481
H             0.1101903776        0.5065239157        0.7489728519
H             0.6506599083        0.4933311006        0.2544380843
H             0.6506599083        0.4933311006        0.7455619157
H            -0.0041955920        0.1372324270        0.2690600212
H            -0.0041955920        0.1372324270        0.7309399788



     Writing config-only to output data dir /storage/home/mgm6007/ixd4/Maria/StrainJin_Files/RuO2-110-0-012/RuO2-110-0-012.save/
     NEW-OLD atomic charge density approx. for the potential

     Check: negative core charge=   -0.000001

     negative rho (up, down):  1.361E-04 0.000E+00

     add environment contribution to local potential
     Polarization accuracy = 3.3E-12, # of iterations =  45

     total cpu time spent up to now is    22009.0 secs

     per-process dynamical memory:   215.5 Mb

     Self-consistent Calculation

     iteration #  1     ecut=    50.00 Ry     beta= 0.70
     Davidson diagonalization with overlap
     ethr =  1.00E-06,  avg # of iterations = 10.0

     negative rho (up, down):  2.487E-04 0.000E+00

     add environment contribution to local potential
     Polarization accuracy = 7.8E-12, # of iterations =  45

     total cpu time spent up to now is    22501.4 secs

     total energy              =   -3435.14042156 Ry
     estimated scf accuracy    <       0.05949028 Ry
     electrostatic embedding   =      -0.03088798 Ry
     cavitation energy         =       0.02080365 Ry
     PV energy                 =      -0.08073951 Ry
     correction to one-el term =     194.96608440 Ry

     iteration #  2     ecut=    50.00 Ry     beta= 0.70
     Davidson diagonalization with overlap
     ethr =  1.63E-05,  avg # of iterations =  2.0

     negative rho (up, down):  3.222E-04 0.000E+00

     add environment contribution to local potential
     Polarization accuracy = 4.1E-12, # of iterations =  45

     total cpu time spent up to now is    23507.9 secs

     total energy              =   -3435.14471061 Ry
     estimated scf accuracy    <       0.04662189 Ry
     electrostatic embedding   =      -0.03116472 Ry
     cavitation energy         =       0.02080463 Ry
     PV energy                 =      -0.08070270 Ry
     correction to one-el term =     195.08834757 Ry

     iteration #  3     ecut=    50.00 Ry     beta= 0.70
     Davidson diagonalization with overlap
     ethr =  1.27E-05,  avg # of iterations =  1.0

     negative rho (up, down):  5.224E-04 0.000E+00

     add environment contribution to local potential
     Polarization accuracy = 3.4E-12, # of iterations =  46

     total cpu time spent up to now is    23998.5 secs

     total energy              =   -3435.14706974 Ry
     estimated scf accuracy    <       0.01107962 Ry
     electrostatic embedding   =      -0.03111117 Ry
     cavitation energy         =       0.02079246 Ry
     PV energy                 =      -0.08071772 Ry
     correction to one-el term =     195.06206280 Ry

     iteration #  4     ecut=    50.00 Ry     beta= 0.70
     Davidson diagonalization with overlap
     ethr =  3.03E-06,  avg # of iterations =  1.0

     negative rho (up, down):  7.326E-04 0.000E+00

     add environment contribution to local potential
     Polarization accuracy = 3.5E-12, # of iterations =  45

     total cpu time spent up to now is    24468.0 secs

     total energy              =   -3435.14756678 Ry
     estimated scf accuracy    <       0.00243219 Ry
     electrostatic embedding   =      -0.03115536 Ry
     cavitation energy         =       0.02079365 Ry
     PV energy                 =      -0.08071891 Ry
     correction to one-el term =     195.10499107 Ry

     iteration #  5     ecut=    50.00 Ry     beta= 0.70
     Davidson diagonalization with overlap
     ethr =  6.65E-07,  avg # of iterations =  2.0

     negative rho (up, down):  7.790E-04 0.000E+00

     add environment contribution to local potential
     Polarization accuracy = 4.9E-12, # of iterations =  45

     total cpu time spent up to now is    24931.2 secs

     total energy              =   -3435.14777453 Ry
     estimated scf accuracy    <       0.00058956 Ry
     electrostatic embedding   =      -0.03120178 Ry
     cavitation energy         =       0.02078750 Ry
     PV energy                 =      -0.08072232 Ry
     correction to one-el term =     195.11586464 Ry

     iteration #  6     ecut=    50.00 Ry     beta= 0.70
     Davidson diagonalization with overlap
     ethr =  1.61E-07,  avg # of iterations =  1.0

     negative rho (up, down):  7.893E-04 0.000E+00

     add environment contribution to local potential
     Polarization accuracy = 3.3E-12, # of iterations =  46

     total cpu time spent up to now is    25455.7 secs

     total energy              =   -3435.14782158 Ry
     estimated scf accuracy    <       0.00017163 Ry
     electrostatic embedding   =      -0.03123540 Ry
     cavitation energy         =       0.02078681 Ry
     PV energy                 =      -0.08072337 Ry
     correction to one-el term =     195.11492538 Ry

     iteration #  7     ecut=    50.00 Ry     beta= 0.70
     Davidson diagonalization with overlap
     ethr =  4.69E-08,  avg # of iterations =  1.0

     negative rho (up, down):  7.608E-04 0.000E+00

     add environment contribution to local potential
     Polarization accuracy = 3.7E-12, # of iterations =  45

     total cpu time spent up to now is    26063.5 secs

     total energy              =   -3435.14783244 Ry
     estimated scf accuracy    <       0.00004982 Ry
     electrostatic embedding   =      -0.03127156 Ry
     cavitation energy         =       0.02078580 Ry
     PV energy                 =      -0.08072609 Ry
     correction to one-el term =     195.10437474 Ry

     iteration #  8     ecut=    50.00 Ry     beta= 0.70
     Davidson diagonalization with overlap
     ethr =  1.36E-08,  avg # of iterations =  2.0

     negative rho (up, down):  7.147E-04 0.000E+00

     add environment contribution to local potential
     Polarization accuracy = 8.2E-12, # of iterations =  45

     total cpu time spent up to now is    26540.7 secs

     total energy              =   -3435.14784488 Ry
     estimated scf accuracy    <       0.00004944 Ry
     electrostatic embedding   =      -0.03131381 Ry
     cavitation energy         =       0.02078495 Ry
     PV energy                 =      -0.08073048 Ry
     correction to one-el term =     195.08371691 Ry

     iteration #  9     ecut=    50.00 Ry     beta= 0.70
     Davidson diagonalization with overlap
     ethr =  1.35E-08,  avg # of iterations =  1.0

     negative rho (up, down):  6.273E-04 0.000E+00

     add environment contribution to local potential
     Polarization accuracy = 6.3E-12, # of iterations =  45

     total cpu time spent up to now is    26972.4 secs

     total energy              =   -3435.14784920 Ry
     estimated scf accuracy    <       0.00001346 Ry
     electrostatic embedding   =      -0.03134611 Ry
     cavitation energy         =       0.02078531 Ry
     PV energy                 =      -0.08073289 Ry
     correction to one-el term =     195.06993280 Ry

     iteration # 10     ecut=    50.00 Ry     beta= 0.70
     Davidson diagonalization with overlap
     ethr =  3.68E-09,  avg # of iterations =  2.0

     negative rho (up, down):  5.078E-04 0.000E+00

     add environment contribution to local potential
     Polarization accuracy = 8.5E-12, # of iterations =  49

     total cpu time spent up to now is    27423.5 secs

     total energy              =   -3435.14785118 Ry
     estimated scf accuracy    <       0.00000890 Ry
     electrostatic embedding   =      -0.03137453 Ry
     cavitation energy         =       0.02078636 Ry
     PV energy                 =      -0.08073532 Ry
     correction to one-el term =     195.05553676 Ry

     iteration # 11     ecut=    50.00 Ry     beta= 0.70
     Davidson diagonalization with overlap
     ethr =  2.43E-09,  avg # of iterations =  2.0

     negative rho (up, down):  4.050E-04 0.000E+00

     add environment contribution to local potential
     Polarization accuracy = 2.7E-12, # of iterations =  50

     total cpu time spent up to now is    27917.0 secs

     total energy              =   -3435.14785186 Ry
     estimated scf accuracy    <       0.00000462 Ry
     electrostatic embedding   =      -0.03139219 Ry
     cavitation energy         =       0.02078769 Ry
     PV energy                 =      -0.08073779 Ry
     correction to one-el term =     195.04276802 Ry

     iteration # 12     ecut=    50.00 Ry     beta= 0.70
     Davidson diagonalization with overlap
     ethr =  1.26E-09,  avg # of iterations =  2.0

     negative rho (up, down):  2.920E-04 0.000E+00

     add environment contribution to local potential
     Polarization accuracy = 9.8E-12, # of iterations =  44

     total cpu time spent up to now is    28448.3 secs

     total energy              =   -3435.14785199 Ry
     estimated scf accuracy    <       0.00000185 Ry
     electrostatic embedding   =      -0.03140241 Ry
     cavitation energy         =       0.02078879 Ry
     PV energy                 =      -0.08073972 Ry
     correction to one-el term =     195.03442849 Ry

     iteration # 13     ecut=    50.00 Ry     beta= 0.70
     Davidson diagonalization with overlap
     ethr =  5.05E-10,  avg # of iterations =  1.0

     negative rho (up, down):  2.283E-04 0.000E+00

     add environment contribution to local potential
     Polarization accuracy = 3.3E-12, # of iterations =  45

     total cpu time spent up to now is    28939.0 secs

     total energy              =   -3435.14785217 Ry
     estimated scf accuracy    <       0.00000071 Ry
     electrostatic embedding   =      -0.03140048 Ry
     cavitation energy         =       0.02078982 Ry
     PV energy                 =      -0.08074165 Ry
     correction to one-el term =     195.02877844 Ry

     iteration # 14     ecut=    50.00 Ry     beta= 0.70
     Davidson diagonalization with overlap
     ethr =  1.93E-10,  avg # of iterations =  2.0

[...]
     atom   37 type  1   force =    -0.16505524    1.52901288  -91.91043333
     atom   38 type  1   force =     0.15948208    0.12672919  -93.76631203
     atom   39 type  1   force =     0.70806597    0.04073503  -95.45392303
     atom   40 type  1   force =     1.43055983   -0.11531990  -96.15281231
     atom   41 type  3   force =    -2.75693903   -0.71299780   16.57079690
     atom   42 type  3   force =    -2.75693903   -0.71299780  -16.57079690
     atom   43 type  3   force =    -2.67607733    0.04907614   16.33608634
     atom   44 type  3   force =    -2.67607733    0.04907614  -16.33608634
     atom   45 type  3   force =    -0.00736206   -1.78488891   17.27886314
     atom   46 type  3   force =    -0.00736206   -1.78488891  -17.27886314
     The core correction contribution to forces
     atom    1 type  1   force =    -0.01723004   -0.00330168   -0.00222967
     atom    2 type  1   force =    -0.01753906    0.00051290   -0.00524867
     atom    3 type  1   force =     0.00012465   -0.01447121    0.00087505
     atom    4 type  1   force =    -0.00003925   -0.00018213   -0.01094063
     atom    5 type  2   force =     0.00000000    0.00000000    0.00000000
     atom    6 type  2   force =     0.00000000    0.00000000    0.00000000
     atom    7 type  1   force =    -0.00008372    0.00079148   -0.00000252
     atom    8 type  1   force =     0.00052102    0.00071366    0.00037009
     atom    9 type  2   force =     0.00000000    0.00000000    0.00000000
     atom   10 type  2   force =     0.00000000    0.00000000    0.00000000
     atom   11 type  1   force =     0.00008384   -0.00062781   -0.00058976
     atom   12 type  1   force =     0.00032396   -0.00045240   -0.00021900
     atom   13 type  1   force =    -0.00009715    0.00008957   -0.00132232
     atom   14 type  1   force =    -0.00005707   -0.00048342    0.00050885
     atom   15 type  1   force =    -0.00004611    0.00014234    0.00012478
     atom   16 type  1   force =    -0.00000245    0.00007475   -0.00082221
     atom   17 type  2   force =     0.00000000    0.00000000    0.00000000
     atom   18 type  2   force =     0.00000000    0.00000000    0.00000000
     atom   19 type  1   force =    -0.00018210   -0.00027583   -0.00000211
     atom   20 type  1   force =     0.00018404   -0.00034441   -0.00000212
     atom   21 type  2   force =     0.00000000    0.00000000    0.00000000
     atom   22 type  2   force =     0.00000000    0.00000000    0.00000000
     atom   23 type  1   force =    -0.00008261    0.00027973   -0.00000209
     atom   24 type  1   force =     0.00009192    0.00030117   -0.00000210
     atom   25 type  1   force =    -0.00004614    0.00014244   -0.00012695
     atom   26 type  1   force =    -0.00000247    0.00007477    0.00082005
     atom   27 type  1   force =    -0.00009716    0.00008959    0.00132002
     atom   28 type  1   force =    -0.00005707   -0.00048348   -0.00051125
     atom   29 type  2   force =     0.00000000    0.00000000    0.00000000
     atom   30 type  2   force =     0.00000000    0.00000000    0.00000000
     atom   31 type  1   force =    -0.00008364    0.00079154    0.00000057
     atom   32 type  1   force =     0.00052098    0.00071366   -0.00037202
     atom   33 type  2   force =     0.00000000    0.00000000    0.00000000
     atom   34 type  2   force =     0.00000000    0.00000000    0.00000000
     atom   35 type  1   force =     0.00008397   -0.00062783    0.00058770
     atom   36 type  1   force =     0.00032391   -0.00045238    0.00021706
     atom   37 type  1   force =     0.00012467   -0.01447338   -0.00087914
     atom   38 type  1   force =    -0.00003923   -0.00018226    0.01093631
     atom   39 type  1   force =    -0.01723075   -0.00330184    0.00222712
     atom   40 type  1   force =    -0.01753986    0.00051292    0.00524644
     atom   41 type  3   force =     0.00000000    0.00000000    0.00000000
     atom   42 type  3   force =     0.00000000    0.00000000    0.00000000
     atom   43 type  3   force =     0.00000000    0.00000000    0.00000000
     atom   44 type  3   force =     0.00000000    0.00000000    0.00000000
     atom   45 type  3   force =     0.00000000    0.00000000    0.00000000
     atom   46 type  3   force =     0.00000000    0.00000000    0.00000000
     The Hubbard contrib.    to forces
     atom    1 type  1   force =     0.00000000    0.00000000    0.00000000
     atom    2 type  1   force =     0.00000000    0.00000000    0.00000000
     atom    3 type  1   force =     0.00000000    0.00000000    0.00000000
     atom    4 type  1   force =     0.00000000    0.00000000    0.00000000
     atom    5 type  2   force =     0.00000000    0.00000000    0.00000000
     atom    6 type  2   force =     0.00000000    0.00000000    0.00000000
     atom    7 type  1   force =     0.00000000    0.00000000    0.00000000
     atom    8 type  1   force =     0.00000000    0.00000000    0.00000000
     atom    9 type  2   force =     0.00000000    0.00000000    0.00000000
     atom   10 type  2   force =     0.00000000    0.00000000    0.00000000
     atom   11 type  1   force =     0.00000000    0.00000000    0.00000000
     atom   12 type  1   force =     0.00000000    0.00000000    0.00000000
     atom   13 type  1   force =     0.00000000    0.00000000    0.00000000
     atom   14 type  1   force =     0.00000000    0.00000000    0.00000000
     atom   15 type  1   force =     0.00000000    0.00000000    0.00000000
     atom   16 type  1   force =     0.00000000    0.00000000    0.00000000
     atom   17 type  2   force =     0.00000000    0.00000000    0.00000000
     atom   18 type  2   force =     0.00000000    0.00000000    0.00000000
     atom   19 type  1   force =     0.00000000    0.00000000    0.00000000
     atom   20 type  1   force =     0.00000000    0.00000000    0.00000000
     atom   21 type  2   force =     0.00000000    0.00000000    0.00000000
     atom   22 type  2   force =     0.00000000    0.00000000    0.00000000
     atom   23 type  1   force =     0.00000000    0.00000000    0.00000000
     atom   24 type  1   force =     0.00000000    0.00000000    0.00000000
     atom   25 type  1   force =     0.00000000    0.00000000    0.00000000
     atom   26 type  1   force =     0.00000000    0.00000000    0.00000000
     atom   27 type  1   force =     0.00000000    0.00000000    0.00000000
     atom   28 type  1   force =     0.00000000    0.00000000    0.00000000
     atom   29 type  2   force =     0.00000000    0.00000000    0.00000000
     atom   30 type  2   force =     0.00000000    0.00000000    0.00000000
     atom   31 type  1   force =     0.00000000    0.00000000    0.00000000
     atom   32 type  1   force =     0.00000000    0.00000000    0.00000000
     atom   33 type  2   force =     0.00000000    0.00000000    0.00000000
     atom   34 type  2   force =     0.00000000    0.00000000    0.00000000
     atom   35 type  1   force =     0.00000000    0.00000000    0.00000000
     atom   36 type  1   force =     0.00000000    0.00000000    0.00000000
     atom   37 type  1   force =     0.00000000    0.00000000    0.00000000
     atom   38 type  1   force =     0.00000000    0.00000000    0.00000000
     atom   39 type  1   force =     0.00000000    0.00000000    0.00000000
     atom   40 type  1   force =     0.00000000    0.00000000    0.00000000
     atom   41 type  3   force =     0.00000000    0.00000000    0.00000000
     atom   42 type  3   force =     0.00000000    0.00000000    0.00000000
     atom   43 type  3   force =     0.00000000    0.00000000    0.00000000
     atom   44 type  3   force =     0.00000000    0.00000000    0.00000000
     atom   45 type  3   force =     0.00000000    0.00000000    0.00000000
     atom   46 type  3   force =     0.00000000    0.00000000    0.00000000
     The SCF correction term to forces
     atom    1 type  1   force =    -0.00000044    0.00000054    0.00000117
     atom    2 type  1   force =     0.00000106   -0.00000151   -0.00000192
     atom    3 type  1   force =     0.00000042    0.00000077   -0.00000134
     atom    4 type  1   force =    -0.00000016    0.00000118    0.00000009
     atom    5 type  2   force =    -0.00000070    0.00000238   -0.00000368
     atom    6 type  2   force =     0.00000047    0.00000159   -0.00000463
     atom    7 type  1   force =    -0.00000060   -0.00000090   -0.00000201
     atom    8 type  1   force =     0.00000032   -0.00000065   -0.00000276
     atom    9 type  2   force =     0.00000090   -0.00000123   -0.00000425
     atom   10 type  2   force =     0.00000044   -0.00000142   -0.00000564
     atom   11 type  1   force =    -0.00000070    0.00000012   -0.00000071
     atom   12 type  1   force =     0.00000045    0.00000014   -0.00000184
     atom   13 type  1   force =     0.00000062    0.00000020   -0.00000160
     atom   14 type  1   force =    -0.00000058   -0.00000006   -0.00000026
     atom   15 type  1   force =     0.00000180   -0.00000003   -0.00000117
     atom   16 type  1   force =    -0.00000159    0.00000007   -0.00000215
     atom   17 type  2   force =     0.00000225    0.00000003    0.00000005
     atom   18 type  2   force =    -0.00000230   -0.00000027    0.00000002
     atom   19 type  1   force =     0.00000044   -0.00000004    0.00000001
     atom   20 type  1   force =    -0.00000043   -0.00000170    0.00000001
     atom   21 type  2   force =    -0.00000388    0.00000023    0.00000004
     atom   22 type  2   force =     0.00000332    0.00000022    0.00000005
     atom   23 type  1   force =     0.00000048   -0.00000001    0.00000001
     atom   24 type  1   force =    -0.00000047    0.00000163    0.00000001
     atom   25 type  1   force =     0.00000180   -0.00000003    0.00000122
     atom   26 type  1   force =    -0.00000159    0.00000007    0.00000218
     atom   27 type  1   force =     0.00000061    0.00000020    0.00000163
     atom   28 type  1   force =    -0.00000057   -0.00000006    0.00000027
     atom   29 type  2   force =    -0.00000075    0.00000238    0.00000370
     atom   30 type  2   force =     0.00000052    0.00000159    0.00000464
     atom   31 type  1   force =    -0.00000063   -0.00000087    0.00000203
     atom   32 type  1   force =     0.00000035   -0.00000063    0.00000278
     atom   33 type  2   force =     0.00000089   -0.00000124    0.00000432
     atom   34 type  2   force =     0.00000045   -0.00000143    0.00000566
     atom   35 type  1   force =    -0.00000073    0.00000010    0.00000072
     atom   36 type  1   force =     0.00000048    0.00000011    0.00000186
     atom   37 type  1   force =     0.00000042    0.00000078    0.00000133
     atom   38 type  1   force =    -0.00000015    0.00000118   -0.00000007
     atom   39 type  1   force =    -0.00000044    0.00000055   -0.00000120
     atom   40 type  1   force =     0.00000107   -0.00000151    0.00000193
     atom   41 type  3   force =     0.00000006   -0.00000000    0.00000009
     atom   42 type  3   force =     0.00000005   -0.00000000   -0.00000009
     atom   43 type  3   force =    -0.00000029   -0.00000011    0.00000001
     atom   44 type  3   force =    -0.00000029   -0.00000011   -0.00000001
     atom   45 type  3   force =     0.00000005   -0.00000010    0.00000009
     atom   46 type  3   force =     0.00000005   -0.00000009   -0.00000009

     Total force =     0.019483     Total SCF correction =     0.000018
     Energy error            =      9.7E-04 Ry
     Gradient error          =      5.9E-03 Ry/Bohr

     number of scf cycles    =   6
     number of bfgs steps    =   5

     energy             old  =   -3435.1706516571 Ry
     energy             new  =   -3435.1716264535 Ry

     CASE: energy            _new < energy            _old

     new trust radius        =       0.0223815028 bohr
     new conv_thr            =            9.7E-11 Ry


ATOMIC_POSITIONS (crystal)
O            -0.0192720419        0.4736820862        0.2696823906
O             0.5076217220        0.4982308818        0.2682105391
O            -0.0021330115        0.0029781326        0.2991179967
O             0.4996610099       -0.0000446544        0.3078915814
Ru            0.2561609915        0.0006423834        0.3556048861
Ru            0.7412859723        0.0007927710        0.3560877640
O             0.2497961932        0.3150326191        0.3572578800
O             0.7493352141        0.3140510768        0.3587292111
Ru           -0.0006025283        0.4997730001        0.3580237556
Ru            0.5003874868        0.5010856277        0.3556401369
O             0.2469208580        0.6860499036        0.3545888198
O             0.7518627565        0.6866680051        0.3572552294
O             0.0000571428       -0.0001757553        0.4110333107
O             0.4984791098       -0.0021488978        0.4112712687
O             0.0011003187        0.5006439005        0.4461795050
O             0.4989471080        0.5021361255        0.4447734150
Ru           -0.0001983263       -0.0001048166        0.5000010000
Ru            0.4994646268        0.0002123772        0.5000010000
O             0.2495525871        0.1866620443        0.5000010000
O             0.7495189370        0.1864002608        0.5000010000
Ru            0.2506998474        0.5003317753        0.5000010000
Ru            0.7483281662        0.5002388963        0.5000010000
O             0.2493234854        0.8141062077        0.5000010000
O             0.7500322693        0.8138534462        0.5000010000
O             0.0011003187        0.5006439005        0.5538214950
O             0.4989471080        0.5021361255        0.5552275850
O             0.0000571428       -0.0001757553        0.5889676893
O             0.4984791098       -0.0021488978        0.5887297313
Ru            0.2561609915        0.0006423834        0.6443961139
Ru            0.7412859723        0.0007927710        0.6439132360
O             0.2497961932        0.3150326191        0.6427431200
O             0.7493352141        0.3140510768        0.6412717889
Ru           -0.0006025283        0.4997730001        0.6419772444
Ru            0.5003874868        0.5010856277        0.6443608631
O             0.2469208580        0.6860499036        0.6454121802
O             0.7518627565        0.6866680051        0.6427457706
O            -0.0021330115        0.0029781326        0.7008840033
O             0.4996610099       -0.0000446544        0.6921104186
O            -0.0192720419        0.4736820862        0.7303186094
O             0.5076217220        0.4982308818        0.7317904609
H             0.1115154759        0.5075465064        0.2502940939
H             0.1115154759        0.5075465064        0.7497059061
H             0.6502952707        0.4936531379        0.2542356895
H             0.6502952707        0.4936531379        0.7457643105
H            -0.0045098448        0.1327700540        0.2710945890
H            -0.0045098448        0.1327700540        0.7289054110



     Writing config-only to output data dir /storage/home/mgm6007/ixd4/Maria/StrainJin_Files/RuO2-110-0-012/RuO2-110-0-012.save/
     NEW-OLD atomic charge density approx. for the potential

     Check: negative core charge=   -0.000001

     negative rho (up, down):  1.413E-04 0.000E+00

     add environment contribution to local potential
     Polarization accuracy = 3.8E-12, # of iterations =  45

     total cpu time spent up to now is   200504.6 secs

     per-process dynamical memory:   215.5 Mb

     Self-consistent Calculation

     iteration #  1     ecut=    50.00 Ry     beta= 0.70
     Davidson diagonalization with overlap
     ethr =  1.00E-06,  avg # of iterations =  4.0

     negative rho (up, down):  1.539E-04 0.000E+00

     add environment contribution to local potential
     Polarization accuracy = 4.1E-12, # of iterations =  45

     total cpu time spent up to now is   201851.3 secs

     total energy              =   -3435.17213767 Ry
     estimated scf accuracy    <       0.00052027 Ry
     electrostatic embedding   =      -0.03030500 Ry
     cavitation energy         =       0.02079686 Ry
     PV energy                 =      -0.08077804 Ry
     correction to one-el term =     195.41795180 Ry

     iteration #  2     ecut=    50.00 Ry     beta= 0.70
     Davidson diagonalization with overlap
     ethr =  1.42E-07,  avg # of iterations =  2.0

     negative rho (up, down):  1.550E-04 0.000E+00

     add environment contribution to local potential
     Polarization accuracy = 4.3E-12, # of iterations =  45

     total cpu time spent up to now is   202192.4 secs

     total energy              =   -3435.17216943 Ry
     estimated scf accuracy    <       0.00058234 Ry
     electrostatic embedding   =      -0.03029011 Ry
     cavitation energy         =       0.02079520 Ry
     PV energy                 =      -0.08077626 Ry
     correction to one-el term =     195.44702648 Ry

     iteration #  3     ecut=    50.00 Ry     beta= 0.70
     Davidson diagonalization with overlap
     ethr =  1.42E-07,  avg # of iterations =  1.0

     negative rho (up, down):  1.660E-04 0.000E+00

     add environment contribution to local potential
     Polarization accuracy = 3.6E-12, # of iterations =  50

     total cpu time spent up to now is   203030.6 secs

     total energy              =   -3435.17218918 Ry
     estimated scf accuracy    <       0.00011168 Ry
     electrostatic embedding   =      -0.03026841 Ry
     cavitation energy         =       0.02079336 Ry
     PV energy                 =      -0.08077840 Ry
     correction to one-el term =     195.44720586 Ry

     iteration #  4     ecut=    50.00 Ry     beta= 0.70
     Davidson diagonalization with overlap
     ethr =  3.05E-08,  avg # of iterations =  2.0

     negative rho (up, down):  1.711E-04 0.000E+00

     add environment contribution to local potential
     Polarization accuracy = 3.3E-12, # of iterations =  50

     total cpu time spent up to now is   203356.9 secs

     total energy              =   -3435.17219683 Ry
     estimated scf accuracy    <       0.00002041 Ry
     electrostatic embedding   =      -0.03024080 Ry
     cavitation energy         =       0.02079131 Ry
     PV energy                 =      -0.08078006 Ry
     correction to one-el term =     195.45969569 Ry

     iteration #  5     ecut=    50.00 Ry     beta= 0.70
     Davidson diagonalization with overlap
     ethr =  5.58E-09,  avg # of iterations =  2.0

     negative rho (up, down):  1.715E-04 0.000E+00

     add environment contribution to local potential
     Polarization accuracy = 9.1E-12, # of iterations =  45

     total cpu time spent up to now is   205388.4 secs

     total energy              =   -3435.17219910 Ry
     estimated scf accuracy    <       0.00000886 Ry
     electrostatic embedding   =      -0.03023080 Ry
     cavitation energy         =       0.02079061 Ry
     PV energy                 =      -0.08078037 Ry
     correction to one-el term =     195.46515818 Ry

     iteration #  6     ecut=    50.00 Ry     beta= 0.70
     Davidson diagonalization with overlap
     ethr =  2.42E-09,  avg # of iterations =  1.0

     negative rho (up, down):  1.711E-04 0.000E+00

     add environment contribution to local potential
     Polarization accuracy = 4.1E-12, # of iterations =  45

     total cpu time spent up to now is   205725.8 secs

     total energy              =   -3435.17219977 Ry
     estimated scf accuracy    <       0.00000136 Ry
     electrostatic embedding   =      -0.03022529 Ry
     cavitation energy         =       0.02079035 Ry
     PV energy                 =      -0.08078063 Ry
     correction to one-el term =     195.46592732 Ry

     iteration #  7     ecut=    50.00 Ry     beta= 0.70
     Davidson diagonalization with overlap
     ethr =  3.71E-10,  avg # of iterations =  2.0

     negative rho (up, down):  1.700E-04 0.000E+00

     add environment contribution to local potential
