
     Program PWSCF v.7.2 starts on 17Jul2023 at  0: 2:32 
        Git branch: heads/qe-7.2
        Last git commit: b4c5e8deeb7d1863e7553a87b45f8d22c21926a5
        Last git commit date: Mon Mar 27 16:12:09 2023 +0000
        Last git commit subject: Merge branch 'merge_fix_hubbard' into 'develop'

     This program is part of the open-source Quantum ESPRESSO suite
     for quantum simulation of materials; please cite
         "P. Giannozzi et al., J. Phys.:Condens. Matter 21 395502 (2009);
         "P. Giannozzi et al., J. Phys.:Condens. Matter 29 465901 (2017);
         "P. Giannozzi et al., J. Chem. Phys. 152 154105 (2020);
          URL http://www.quantum-espresso.org", 
     in publications or presentations arising from this work. More details at
     http://www.quantum-espresso.org/quote

     Parallel version (MPI), running on    20 processors

     MPI processes distributed on     1 nodes
     103776 MiB available memory on the printing compute node when the environment starts
 
     Reading input from RuO2-110-0-.in
Warning: card  H 1.007940 H.PBE-RRKJUS_PSL.1.0.0.UPF ignored

     Current dimensions of program PWSCF are:
     Max number of different atomic species (ntypx) = 10
     Max number of k-points (npk) =  40000
     Max angular momentum in pseudopotentials (lmaxx) =  4
 
     Reading input from environ.in:
     * Environ restarting
     * setting up water environment
     * using electronic solvent mode
     * setting boundary derivatives method to SCCS default
     
     file O.pbe-n-kjpaw_psl.0.1.UPF: wavefunction(s)  2P renormalized
     Message from routine setup:
     using ibrav=0 with symmetry is DISCOURAGED, use correct ibrav instead
 
     R & G space division:  proc/nbgrp/npool/nimage =      20
     Subspace diagonalization in iterative solution of the eigenvalue problem:
     one sub-group per band group will be used
     scalapack distributed-memory algorithm (size of sub-group:  2*  2 procs)

 
     Parallelization info
     --------------------
     sticks:   dense  smooth     PW     G-vecs:    dense   smooth      PW
     Min         279     111     29                56791    14363    1935
     Max         280     112     30                56800    14376    1948
     Sum        5595    2237    595              1135923   287389   38825
 
     Using Slab Decomposition
 


     bravais-lattice index     =            0
     lattice parameter (alat)  =      12.2467  a.u.
     unit-cell volume          =    6016.1196 (a.u.)^3
     number of atoms/cell      =           40
     number of atomic types    =            2
     number of electrons       =       360.00
     number of Kohn-Sham states=          216
     kinetic-energy cutoff     =      50.0000  Ry
     charge density cutoff     =     500.0000  Ry
     scf convergence threshold =      1.0E-09
     mixing beta               =       0.7000
     number of iterations used =            8  local-TF  mixing
     energy convergence thresh.=      1.0E-04
     force convergence thresh. =      1.0E-04
     Exchange-correlation= PBE
                           (   1   4   3   4   0   0   0)
     nstep                     =          200


     ================================================================================
 
                                  Environ Setup Summary

     ================================================================================
 
     Please cite

          O. Andreussi, I. Dabo and N. Marzari, J. Chem. Phys. 136, 064102 (2012)

     in publications or presentations arising from this work.

     ================================================================================
 
     Parameters
     ==========

     compensation onset threshold      =               0.1000E+00
     static permittivity               =                    78.30
     surface tension in input (dyn/cm) =                    47.90
     surface tension in internal units =               0.6153E-04
     external pressure in input (GPa)  =                    -0.36
     external pressure in inter. units =              -0.2447E-04

     Solvent Boundary
     ================

     solvent mode                      =               electronic
     derivatives method                =                    chain
     numerical core for derivatives    =                      fft
     switching function adopted        =                     SCCS
     density limit for vacuum region   =               0.5000E-02
     density limit for bulk solvent    =               0.1000E-03

     Electrostatic Setup
     ===================

     electrostatic problem to solve    =              generalized
     numerical solver adopted          =                       cg
     type of auxiliary density adopted =                     none
     numerical core for poisson        =                      fft
     type of pbc corrections           =                parabolic
     numerical core for corrections    =                      1da

     ================================================================================
 

     celldm(1)=  12.246684  celldm(2)=   0.000000  celldm(3)=   0.000000
     celldm(4)=   0.000000  celldm(5)=   0.000000  celldm(6)=   0.000000

     crystal axes: (cart. coord. in units of alat)
               a(1) = (   1.000000   0.000000   0.000000 )  
               a(2) = (   0.000000   0.937861   0.000000 )  
               a(3) = (   0.000000   0.000000   3.492388 )  

     reciprocal axes: (cart. coord. in units 2 pi/alat)
               b(1) = (  1.000000  0.000000  0.000000 )  
               b(2) = (  0.000000  1.066256  0.000000 )  
               b(3) = (  0.000000  0.000000  0.286337 )  


     PseudoPot. # 1 for O  read from file:
     /gpfs/group/ixd4/default/Simon/pseudopotentials/materialscloud/SSSP_1.3.0_PBE_efficiency/O.pbe-n-kjpaw_psl.0.1.UPF
     MD5 check sum: 0234752ac141de4415c5fc33072bef88
     Pseudo is Projector augmented-wave + core cor, Zval =  6.0
     Generated using "atomic" code by A. Dal Corso  v.5.0.99 svn rev. 10869
     Shape of augmentation charge: BESSEL
     Using radial grid of 1095 points,  4 beta functions with: 
                l(1) =   0
                l(2) =   0
                l(3) =   1
                l(4) =   1
     Q(r) pseudized with 0 coefficients 


     PseudoPot. # 2 for Ru read from file:
     /gpfs/group/ixd4/default/Simon/pseudopotentials/materialscloud/SSSP_1.3.0_PBE_efficiency/Ru_ONCV_PBE-1.0.oncvpsp.upf
     MD5 check sum: be037bb81c227cfb9b1461a9f099f4bd
     Pseudo is Norm-conserving, Zval = 16.0
     Generated using ONCVPSP code by D. R. Hamann
     Using radial grid of 1458 points,  6 beta functions with: 
                l(1) =   0
                l(2) =   0
                l(3) =   1
                l(4) =   1
                l(5) =   2
                l(6) =   2

     atomic species   valence    mass     pseudopotential
        O              6.00    15.99940     O ( 1.00)
        Ru            16.00   101.07000     Ru( 1.00)

      8 Sym. Ops., with inversion, found


                                    s                        frac. trans.

      isym =  1     identity                                     

 cryst.   s( 1) = (     1          0          0      )
                  (     0          1          0      )
                  (     0          0          1      )

 cart.    s( 1) = (  1.0000000  0.0000000  0.0000000 )
                  (  0.0000000  1.0000000  0.0000000 )
                  (  0.0000000  0.0000000  1.0000000 )


      isym =  2     180 deg rotation - cart. axis [0,0,1]        

 cryst.   s( 2) = (    -1          0          0      )
                  (     0         -1          0      )
                  (     0          0          1      )

 cart.    s( 2) = ( -1.0000000  0.0000000  0.0000000 )
                  (  0.0000000 -1.0000000  0.0000000 )
                  (  0.0000000  0.0000000  1.0000000 )


      isym =  3     180 deg rotation - cart. axis [0,1,0]        

 cryst.   s( 3) = (    -1          0          0      )
                  (     0          1          0      )
                  (     0          0         -1      )

 cart.    s( 3) = ( -1.0000000  0.0000000  0.0000000 )
                  (  0.0000000  1.0000000  0.0000000 )
                  (  0.0000000  0.0000000 -1.0000000 )


      isym =  4     180 deg rotation - cart. axis [1,0,0]        

 cryst.   s( 4) = (     1          0          0      )
                  (     0         -1          0      )
                  (     0          0         -1      )

 cart.    s( 4) = (  1.0000000  0.0000000  0.0000000 )
                  (  0.0000000 -1.0000000  0.0000000 )
                  (  0.0000000  0.0000000 -1.0000000 )


      isym =  5     inversion                                    

 cryst.   s( 5) = (    -1          0          0      )
                  (     0         -1          0      )
                  (     0          0         -1      )

 cart.    s( 5) = ( -1.0000000  0.0000000  0.0000000 )
                  (  0.0000000 -1.0000000  0.0000000 )
                  (  0.0000000  0.0000000 -1.0000000 )


      isym =  6     inv. 180 deg rotation - cart. axis [0,0,1]   

 cryst.   s( 6) = (     1          0          0      )
                  (     0          1          0      )
                  (     0          0         -1      )

 cart.    s( 6) = (  1.0000000  0.0000000  0.0000000 )
                  (  0.0000000  1.0000000  0.0000000 )
                  (  0.0000000  0.0000000 -1.0000000 )


      isym =  7     inv. 180 deg rotation - cart. axis [0,1,0]   

 cryst.   s( 7) = (     1          0          0      )
                  (     0         -1          0      )
                  (     0          0          1      )

 cart.    s( 7) = (  1.0000000  0.0000000  0.0000000 )
                  (  0.0000000 -1.0000000  0.0000000 )
                  (  0.0000000  0.0000000  1.0000000 )


      isym =  8     inv. 180 deg rotation - cart. axis [1,0,0]   

 cryst.   s( 8) = (    -1          0          0      )
                  (     0          1          0      )
                  (     0          0          1      )

 cart.    s( 8) = ( -1.0000000  0.0000000  0.0000000 )
                  (  0.0000000  1.0000000  0.0000000 )
                  (  0.0000000  0.0000000  1.0000000 )


   Cartesian axes

     site n.     atom                  positions (alat units)
         1           O   tau(   1) = (   0.0000000   0.4689304   0.9415187  )
         2           O   tau(   2) = (   0.5000000   0.4689304   0.9415245  )
         3           O   tau(   3) = (   0.0000000   0.0000000   1.0618850  )
         4           O   tau(   4) = (   0.5000000   0.0000000   1.0618845  )
         5           Ru  tau(   5) = (   0.2500002   0.0000000   1.2350600  )
         6           Ru  tau(   6) = (   0.7499998   0.0000000   1.2350600  )
         7           O   tau(   7) = (   0.2500012   0.2891829   1.2509459  )
         8           O   tau(   8) = (   0.7499988   0.2891829   1.2509459  )
         9           Ru  tau(   9) = (   0.0000000   0.4689304   1.2195732  )
        10           Ru  tau(  10) = (   0.5000000   0.4689304   1.2195787  )
        11           O   tau(  11) = (   0.2500012   0.6486780   1.2509459  )
        12           O   tau(  12) = (   0.7499988   0.6486780   1.2509459  )
        13           O   tau(  13) = (   0.0000000   0.0000000   1.4396665  )
        14           O   tau(  14) = (   0.5000000   0.0000000   1.4396668  )
        15           O   tau(  15) = (   0.0000000   0.4689304   1.5497893  )
        16           O   tau(  16) = (   0.5000000   0.4689304   1.5498370  )
        17           Ru  tau(  17) = (   0.0000000   0.0000000   1.7461974  )
        18           Ru  tau(  18) = (   0.5000000   0.0000000   1.7461974  )
        19           O   tau(  19) = (   0.2499978   0.1815951   1.7461974  )
        20           O   tau(  20) = (   0.7500022   0.1815951   1.7461974  )
        21           Ru  tau(  21) = (   0.2499815   0.4689304   1.7461974  )
        22           Ru  tau(  22) = (   0.7500185   0.4689304   1.7461974  )
        23           O   tau(  23) = (   0.2499978   0.7562667   1.7461974  )
        24           O   tau(  24) = (   0.7500022   0.7562667   1.7461974  )
        25           O   tau(  25) = (   0.0000000   0.4689304   1.9426019  )
        26           O   tau(  26) = (   0.5000000   0.4689304   1.9425542  )
        27           O   tau(  27) = (   0.0000000   0.0000000   2.0527248  )
        28           O   tau(  28) = (   0.5000000   0.0000000   2.0527244  )
        29           Ru  tau(  29) = (   0.2500002   0.0000000   2.2573348  )
        30           Ru  tau(  30) = (   0.7499998   0.0000000   2.2573348  )
        31           O   tau(  31) = (   0.2500012   0.2891829   2.2414489  )
        32           O   tau(  32) = (   0.7499988   0.2891829   2.2414489  )
        33           Ru  tau(  33) = (   0.0000000   0.4689304   2.2728215  )
        34           Ru  tau(  34) = (   0.5000000   0.4689304   2.2728161  )
        35           O   tau(  35) = (   0.2500012   0.6486780   2.2414489  )
        36           O   tau(  36) = (   0.7499988   0.6486780   2.2414489  )
        37           O   tau(  37) = (   0.0000000   0.0000000   2.4305062  )
        38           O   tau(  38) = (   0.5000000   0.0000000   2.4305068  )
        39           O   tau(  39) = (   0.0000000   0.4689304   2.5508725  )
        40           O   tau(  40) = (   0.5000000   0.4689304   2.5508668  )

   Crystallographic axes

     site n.     atom                  positions (cryst. coord.)
         1           O   tau(   1) = (  0.0000000  0.5000000  0.2695917  )
         2           O   tau(   2) = (  0.5000000  0.5000000  0.2695933  )
         3           O   tau(   3) = (  0.0000000  0.0000000  0.3040570  )
         4           O   tau(   4) = (  0.5000000  0.0000000  0.3040569  )
         5           Ru  tau(   5) = (  0.2500002  0.0000000  0.3536434  )
         6           Ru  tau(   6) = (  0.7499998  0.0000000  0.3536434  )
         7           O   tau(   7) = (  0.2500012  0.3083431  0.3581922  )
         8           O   tau(   8) = (  0.7499988  0.3083431  0.3581922  )
         9           Ru  tau(   9) = (  0.0000000  0.5000000  0.3492090  )
        10           Ru  tau(  10) = (  0.5000000  0.5000000  0.3492106  )
        11           O   tau(  11) = (  0.2500012  0.6916569  0.3581922  )
        12           O   tau(  12) = (  0.7499988  0.6916569  0.3581922  )
        13           O   tau(  13) = (  0.0000000  0.0000000  0.4122298  )
        14           O   tau(  14) = (  0.5000000  0.0000000  0.4122299  )
        15           O   tau(  15) = (  0.0000000  0.5000000  0.4437621  )
        16           O   tau(  16) = (  0.5000000  0.5000000  0.4437758  )
        17           Ru  tau(  17) = (  0.0000000  0.0000000  0.5000010  )
        18           Ru  tau(  18) = (  0.5000000  0.0000000  0.5000010  )
        19           O   tau(  19) = (  0.2499978  0.1936269  0.5000010  )
        20           O   tau(  20) = (  0.7500022  0.1936269  0.5000010  )
        21           Ru  tau(  21) = (  0.2499815  0.5000000  0.5000010  )
        22           Ru  tau(  22) = (  0.7500185  0.5000000  0.5000010  )
        23           O   tau(  23) = (  0.2499978  0.8063741  0.5000010  )
        24           O   tau(  24) = (  0.7500022  0.8063741  0.5000010  )
        25           O   tau(  25) = (  0.0000000  0.5000000  0.5562389  )
        26           O   tau(  26) = (  0.5000000  0.5000000  0.5562252  )
        27           O   tau(  27) = (  0.0000000  0.0000000  0.5877712  )
        28           O   tau(  28) = (  0.5000000  0.0000000  0.5877711  )
        29           Ru  tau(  29) = (  0.2500002  0.0000000  0.6463586  )
        30           Ru  tau(  30) = (  0.7499998  0.0000000  0.6463586  )
        31           O   tau(  31) = (  0.2500012  0.3083431  0.6418098  )
        32           O   tau(  32) = (  0.7499988  0.3083431  0.6418098  )
        33           Ru  tau(  33) = (  0.0000000  0.5000000  0.6507930  )
        34           Ru  tau(  34) = (  0.5000000  0.5000000  0.6507914  )
        35           O   tau(  35) = (  0.2500012  0.6916569  0.6418098  )
        36           O   tau(  36) = (  0.7499988  0.6916569  0.6418098  )
        37           O   tau(  37) = (  0.0000000  0.0000000  0.6959440  )
        38           O   tau(  38) = (  0.5000000  0.0000000  0.6959441  )
        39           O   tau(  39) = (  0.0000000  0.5000000  0.7304093  )
        40           O   tau(  40) = (  0.5000000  0.5000000  0.7304077  )

     number of k points=     1  Marzari-Vanderbilt smearing, width (Ry)=  0.0300
                       cart. coord. in units 2pi/alat
        k(    1) = (   0.2500000   0.2665641   0.0000000), wk =   2.0000000

                       cryst. coord.
        k(    1) = (   0.2500000   0.2500000   0.0000000), wk =   2.0000000

     Dense  grid:  1135923 G-vectors     FFT dimensions: (  90,  81, 320)

     Smooth grid:   287389 G-vectors     FFT dimensions: (  60,  54, 200)

     Dynamical RAM for                 wfc:       5.92 MB

     Dynamical RAM for     wfc (w. buffer):       5.92 MB

     Dynamical RAM for           str. fact:       1.73 MB

     Dynamical RAM for           local pot:       0.00 MB

     Dynamical RAM for          nlocal pot:      12.05 MB

     Dynamical RAM for                qrad:       3.59 MB

     Dynamical RAM for          rho,v,vnew:       5.27 MB

     Dynamical RAM for               rhoin:       1.76 MB

     Dynamical RAM for            rho*nmix:      13.87 MB

     Dynamical RAM for           G-vectors:       3.36 MB

     Dynamical RAM for          h,s,v(r/c):       2.14 MB

     Dynamical RAM for          <psi|beta>:       1.45 MB

     Dynamical RAM for                 psi:      11.83 MB

     Dynamical RAM for                hpsi:      11.83 MB

     Dynamical RAM for                spsi:      11.83 MB

     Dynamical RAM for      wfcinit/wfcrot:      13.94 MB

     Dynamical RAM for           addusdens:      68.46 MB

     Dynamical RAM for          addusforce:     115.71 MB

     Estimated static dynamical RAM per process >      40.72 MB

     Estimated max dynamical RAM per process >     170.30 MB

     Estimated total dynamical RAM >       3.33 GB

     Check: negative core charge=   -0.000001

     Initial potential from superposition of free atoms

     starting charge     359.9933, renormalised to     360.0000

     add environment contribution to local potential
     Polarization accuracy = 1.8E-12, # of iterations =  22

     negative rho (up, down):  5.465E-05 0.000E+00
     Starting wfcs are  232 randomized atomic wfcs
     Checking if some PAW data can be deallocated... 
       PAW data deallocated on    6 nodes for type:  1

     total cpu time spent up to now is      994.7 secs

     per-process dynamical memory:   138.9 Mb

     Self-consistent Calculation

     iteration #  1     ecut=    50.00 Ry     beta= 0.70
     Davidson diagonalization with overlap

---- Real-time Memory Report at c_bands before calling an iterative solver
           259 MiB given to the printing process from OS
           135 MiB allocation reported by mallinfo(arena+hblkhd)
        100622 MiB available memory on the node where the printing process lives
------------------
     ethr =  1.00E-02,  avg # of iterations =  2.0

     negative rho (up, down):  4.450E-07 0.000E+00

     total cpu time spent up to now is     1274.4 secs

     total energy              =   -3424.36202031 Ry
     estimated scf accuracy    <      11.98677941 Ry
     electrostatic embedding   =      -0.00147316 Ry
     cavitation energy         =       0.01960427 Ry
     PV energy                 =      -0.08260005 Ry
     correction to one-el term =     205.46546488 Ry

     iteration #  2     ecut=    50.00 Ry     beta= 0.70
     Davidson diagonalization with overlap

---- Real-time Memory Report at c_bands before calling an iterative solver
           326 MiB given to the printing process from OS
           200 MiB allocation reported by mallinfo(arena+hblkhd)
        100230 MiB available memory on the node where the printing process lives
------------------
     ethr =  3.33E-03,  avg # of iterations =  2.0

     total cpu time spent up to now is     1566.0 secs

     total energy              =   -3426.81167155 Ry
     estimated scf accuracy    <       6.07187707 Ry
     electrostatic embedding   =      -0.00142437 Ry
     cavitation energy         =       0.01995610 Ry
     PV energy                 =      -0.08136234 Ry
     correction to one-el term =     205.46456989 Ry

     iteration #  3     ecut=    50.00 Ry     beta= 0.70
     Davidson diagonalization with overlap

---- Real-time Memory Report at c_bands before calling an iterative solver
           340 MiB given to the printing process from OS
           200 MiB allocation reported by mallinfo(arena+hblkhd)
        100242 MiB available memory on the node where the printing process lives
------------------
     ethr =  1.69E-03,  avg # of iterations =  1.0

     negative rho (up, down):  4.005E-08 0.000E+00

     total cpu time spent up to now is     1878.9 secs

     total energy              =   -3427.36889154 Ry
     estimated scf accuracy    <       4.06669911 Ry
     electrostatic embedding   =      -0.00175711 Ry
     cavitation energy         =       0.01998348 Ry
     PV energy                 =      -0.08212245 Ry
     correction to one-el term =     205.46578003 Ry

     iteration #  4     ecut=    50.00 Ry     beta= 0.70
     Davidson diagonalization with overlap

---- Real-time Memory Report at c_bands before calling an iterative solver
           348 MiB given to the printing process from OS
           200 MiB allocation reported by mallinfo(arena+hblkhd)
        100386 MiB available memory on the node where the printing process lives
------------------
     ethr =  1.13E-03,  avg # of iterations =  1.0

     negative rho (up, down):  1.584E-08 0.000E+00

     total cpu time spent up to now is     2182.8 secs

     total energy              =   -3427.46906336 Ry
     estimated scf accuracy    <       0.24655810 Ry
     electrostatic embedding   =      -0.00168069 Ry
     cavitation energy         =       0.02017925 Ry
     PV energy                 =      -0.08174135 Ry
     correction to one-el term =     205.46530773 Ry

     iteration #  5     ecut=    50.00 Ry     beta= 0.70
     Davidson diagonalization with overlap

---- Real-time Memory Report at c_bands before calling an iterative solver
           355 MiB given to the printing process from OS
           200 MiB allocation reported by mallinfo(arena+hblkhd)
        100436 MiB available memory on the node where the printing process lives
------------------
     ethr =  6.85E-05,  avg # of iterations =  4.0

     negative rho (up, down):  1.841E-08 0.000E+00

     add environment contribution to local potential
     Polarization accuracy = 9.1E-13, # of iterations =  35

     total cpu time spent up to now is     2477.1 secs

     total energy              =   -3427.48612884 Ry
     estimated scf accuracy    <       0.08986890 Ry
     electrostatic embedding   =      -0.00168127 Ry
     cavitation energy         =       0.02044521 Ry
     PV energy                 =      -0.08148685 Ry
     correction to one-el term =     205.46508303 Ry

     iteration #  6     ecut=    50.00 Ry     beta= 0.70
     Davidson diagonalization with overlap

---- Real-time Memory Report at c_bands before calling an iterative solver
           364 MiB given to the printing process from OS
           200 MiB allocation reported by mallinfo(arena+hblkhd)
        100427 MiB available memory on the node where the printing process lives
------------------
     ethr =  2.50E-05,  avg # of iterations =  2.0

     negative rho (up, down):  3.061E-08 0.000E+00

     total cpu time spent up to now is     2815.2 secs

     total energy              =   -3427.49610183 Ry
     estimated scf accuracy    <       0.10670434 Ry
     electrostatic embedding   =      -0.00683943 Ry
     cavitation energy         =       0.02074024 Ry
     PV energy                 =      -0.08128441 Ry
     correction to one-el term =     196.18665457 Ry

     iteration #  7     ecut=    50.00 Ry     beta= 0.70
     Davidson diagonalization with overlap

---- Real-time Memory Report at c_bands before calling an iterative solver
           371 MiB given to the printing process from OS
           200 MiB allocation reported by mallinfo(arena+hblkhd)
        100421 MiB available memory on the node where the printing process lives
------------------
     ethr =  2.50E-05,  avg # of iterations =  1.0

     negative rho (up, down):  2.423E-08 0.000E+00

     add environment contribution to local potential
     Polarization accuracy = 2.5E-12, # of iterations =  38

     total cpu time spent up to now is     3056.2 secs

     total energy              =   -3427.49713484 Ry
     estimated scf accuracy    <       0.02309858 Ry
     electrostatic embedding   =      -0.00719168 Ry
     cavitation energy         =       0.02124302 Ry
     PV energy                 =      -0.08093656 Ry
     correction to one-el term =     196.18765682 Ry

     iteration #  8     ecut=    50.00 Ry     beta= 0.70
     Davidson diagonalization with overlap

---- Real-time Memory Report at c_bands before calling an iterative solver
           373 MiB given to the printing process from OS
           200 MiB allocation reported by mallinfo(arena+hblkhd)
        100414 MiB available memory on the node where the printing process lives
------------------
     ethr =  6.42E-06,  avg # of iterations = 12.0

     negative rho (up, down):  2.393E-08 0.000E+00

     add environment contribution to local potential
     Polarization accuracy = 3.9E-12, # of iterations =  37

     total cpu time spent up to now is     3324.6 secs

     total energy              =   -3427.50009713 Ry
     estimated scf accuracy    <       0.01577537 Ry
     electrostatic embedding   =      -0.00937030 Ry
     cavitation energy         =       0.02135004 Ry
     PV energy                 =      -0.08086995 Ry
     correction to one-el term =     193.34118714 Ry

     iteration #  9     ecut=    50.00 Ry     beta= 0.70
     Davidson diagonalization with overlap

---- Real-time Memory Report at c_bands before calling an iterative solver
           391 MiB given to the printing process from OS
           200 MiB allocation reported by mallinfo(arena+hblkhd)
        100390 MiB available memory on the node where the printing process lives
------------------
     ethr =  4.38E-06,  avg # of iterations =  1.0

     add environment contribution to local potential
     Polarization accuracy = 3.8E-12, # of iterations =  38

     total cpu time spent up to now is     3615.0 secs

     total energy              =   -3427.50014367 Ry
     estimated scf accuracy    <       0.00651601 Ry
     electrostatic embedding   =      -0.01005716 Ry
     cavitation energy         =       0.02149908 Ry
     PV energy                 =      -0.08077058 Ry
     correction to one-el term =     192.90120071 Ry

     iteration # 10     ecut=    50.00 Ry     beta= 0.70
     Davidson diagonalization with overlap

---- Real-time Memory Report at c_bands before calling an iterative solver
           397 MiB given to the printing process from OS
           200 MiB allocation reported by mallinfo(arena+hblkhd)
        100357 MiB available memory on the node where the printing process lives
------------------
     ethr =  1.81E-06,  avg # of iterations =  1.0

     add environment contribution to local potential
     Polarization accuracy = 4.6E-12, # of iterations =  39

     total cpu time spent up to now is     3856.8 secs

     total energy              =   -3427.50053267 Ry
     estimated scf accuracy    <       0.00121221 Ry
     electrostatic embedding   =      -0.01094796 Ry
     cavitation energy         =       0.02167224 Ry
     PV energy                 =      -0.08066907 Ry
     correction to one-el term =     192.50345699 Ry

     iteration # 11     ecut=    50.00 Ry     beta= 0.70
     Davidson diagonalization with overlap

---- Real-time Memory Report at c_bands before calling an iterative solver
           400 MiB given to the printing process from OS
           200 MiB allocation reported by mallinfo(arena+hblkhd)
        100349 MiB available memory on the node where the printing process lives
------------------
     ethr =  3.37E-07,  avg # of iterations =  1.0

     add environment contribution to local potential
     Polarization accuracy = 4.4E-12, # of iterations =  38

     total cpu time spent up to now is     4106.6 secs

     total energy              =   -3427.50059429 Ry
     estimated scf accuracy    <       0.00069778 Ry
     electrostatic embedding   =      -0.01115406 Ry
     cavitation energy         =       0.02170567 Ry
     PV energy                 =      -0.08065646 Ry
     correction to one-el term =     192.47541605 Ry

     iteration # 12     ecut=    50.00 Ry     beta= 0.70
     Davidson diagonalization with overlap

---- Real-time Memory Report at c_bands before calling an iterative solver
           405 MiB given to the printing process from OS
           200 MiB allocation reported by mallinfo(arena+hblkhd)
        100315 MiB available memory on the node where the printing process lives
------------------
     ethr =  1.94E-07,  avg # of iterations =  1.0

     negative rho (up, down):  1.793E-07 0.000E+00

     add environment contribution to local potential
     Polarization accuracy = 4.0E-12, # of iterations =  38

     total cpu time spent up to now is     4361.3 secs

     total energy              =   -3427.50064206 Ry
     estimated scf accuracy    <       0.00024553 Ry
     electrostatic embedding   =      -0.01132117 Ry
     cavitation energy         =       0.02172864 Ry
     PV energy                 =      -0.08065087 Ry
     correction to one-el term =     192.50597808 Ry

     iteration # 13     ecut=    50.00 Ry     beta= 0.70
     Davidson diagonalization with overlap

---- Real-time Memory Report at c_bands before calling an iterative solver
           408 MiB given to the printing process from OS
           200 MiB allocation reported by mallinfo(arena+hblkhd)
        100348 MiB available memory on the node where the printing process lives
------------------
     ethr =  6.82E-08,  avg # of iterations =  1.0

     negative rho (up, down):  3.953E-06 0.000E+00

     add environment contribution to local potential
     Polarization accuracy = 3.3E-12, # of iterations =  38

     total cpu time spent up to now is     4613.7 secs

     total energy              =   -3427.50068237 Ry
     estimated scf accuracy    <       0.00001695 Ry
     electrostatic embedding   =      -0.01153282 Ry
     cavitation energy         =       0.02175591 Ry
     PV energy                 =      -0.08064467 Ry
     correction to one-el term =     192.54676096 Ry

     iteration # 14     ecut=    50.00 Ry     beta= 0.70
     Davidson diagonalization with overlap

---- Real-time Memory Report at c_bands before calling an iterative solver
           412 MiB given to the printing process from OS
           200 MiB allocation reported by mallinfo(arena+hblkhd)
        100331 MiB available memory on the node where the printing process lives
------------------
     ethr =  4.71E-09,  avg # of iterations =  2.0

     negative rho (up, down):  6.727E-06 0.000E+00

     add environment contribution to local potential
     Polarization accuracy = 2.9E-12, # of iterations =  38

     total cpu time spent up to now is     4867.2 secs

     total energy              =   -3427.50068838 Ry
     estimated scf accuracy    <       0.00001991 Ry
     electrostatic embedding   =      -0.01150483 Ry
     cavitation energy         =       0.02174183 Ry
     PV energy                 =      -0.08066370 Ry
     correction to one-el term =     192.68520818 Ry

     iteration # 15     ecut=    50.00 Ry     beta= 0.70
     Davidson diagonalization with overlap

---- Real-time Memory Report at c_bands before calling an iterative solver
           415 MiB given to the printing process from OS
           200 MiB allocation reported by mallinfo(arena+hblkhd)
        100318 MiB available memory on the node where the printing process lives
------------------
     ethr =  4.71E-09,  avg # of iterations =  1.0

     negative rho (up, down):  1.637E-05 0.000E+00

     add environment contribution to local potential
     Polarization accuracy = 3.4E-12, # of iterations =  38

     total cpu time spent up to now is     5164.3 secs

     total energy              =   -3427.50069186 Ry
     estimated scf accuracy    <       0.00000719 Ry
     electrostatic embedding   =      -0.01151663 Ry
     cavitation energy         =       0.02174312 Ry
     PV energy                 =      -0.08066496 Ry
     correction to one-el term =     192.69040282 Ry

     iteration # 16     ecut=    50.00 Ry     beta= 0.70
     Davidson diagonalization with overlap

---- Real-time Memory Report at c_bands before calling an iterative solver
           417 MiB given to the printing process from OS
           200 MiB allocation reported by mallinfo(arena+hblkhd)
        100307 MiB available memory on the node where the printing process lives
------------------
     ethr =  2.00E-09,  avg # of iterations =  2.0

     negative rho (up, down):  1.569E-05 0.000E+00

     add environment contribution to local potential
     Polarization accuracy = 2.4E-12, # of iterations =  39

     total cpu time spent up to now is     5443.3 secs

     total energy              =   -3427.50069291 Ry
     estimated scf accuracy    <       0.00000381 Ry
     electrostatic embedding   =      -0.01147890 Ry
     cavitation energy         =       0.02173466 Ry
     PV energy                 =      -0.08067300 Ry
     correction to one-el term =     192.74300220 Ry

     iteration # 17     ecut=    50.00 Ry     beta= 0.70
     Davidson diagonalization with overlap

---- Real-time Memory Report at c_bands before calling an iterative solver
           420 MiB given to the printing process from OS
           200 MiB allocation reported by mallinfo(arena+hblkhd)
        100299 MiB available memory on the node where the printing process lives
------------------
     ethr =  1.06E-09,  avg # of iterations =  2.0

     negative rho (up, down):  3.906E-05 0.000E+00

     add environment contribution to local potential
     Polarization accuracy = 2.2E-12, # of iterations =  39

     total cpu time spent up to now is     5704.5 secs

     total energy              =   -3427.50069434 Ry
     estimated scf accuracy    <       0.00000163 Ry
     electrostatic embedding   =      -0.01144782 Ry
     cavitation energy         =       0.02173040 Ry
     PV energy                 =      -0.08067590 Ry
     correction to one-el term =     192.75705206 Ry

     iteration # 18     ecut=    50.00 Ry     beta= 0.70
     Davidson diagonalization with overlap

---- Real-time Memory Report at c_bands before calling an iterative solver
           421 MiB given to the printing process from OS
           200 MiB allocation reported by mallinfo(arena+hblkhd)
        100288 MiB available memory on the node where the printing process lives
------------------
     ethr =  4.54E-10,  avg # of iterations =  2.0

     negative rho (up, down):  1.398E-04 0.000E+00

     add environment contribution to local potential
     Polarization accuracy = 7.1E-12, # of iterations =  37

     total cpu time spent up to now is     5969.6 secs

     total energy              =   -3427.50069528 Ry
     estimated scf accuracy    <       0.00000080 Ry
     electrostatic embedding   =      -0.01143787 Ry
     cavitation energy         =       0.02172808 Ry
     PV energy                 =      -0.08067870 Ry
     correction to one-el term =     192.77956571 Ry

     iteration # 19     ecut=    50.00 Ry     beta= 0.70
     Davidson diagonalization with overlap

---- Real-time Memory Report at c_bands before calling an iterative solver
           424 MiB given to the printing process from OS
           200 MiB allocation reported by mallinfo(arena+hblkhd)
         85588 MiB available memory on the node where the printing process lives
------------------
     ethr =  2.23E-10,  avg # of iterations =  5.0

     negative rho (up, down):  1.312E-04 0.000E+00

     add environment contribution to local potential
     Polarization accuracy = 5.8E-12, # of iterations =  37

     total cpu time spent up to now is     6278.2 secs

     total energy              =   -3427.50069709 Ry
     estimated scf accuracy    <       0.00000041 Ry
     electrostatic embedding   =      -0.01142638 Ry
     cavitation energy         =       0.02172648 Ry
     PV energy                 =      -0.08068039 Ry
     correction to one-el term =     192.80576942 Ry

     iteration # 20     ecut=    50.00 Ry     beta= 0.70
     Davidson diagonalization with overlap

---- Real-time Memory Report at c_bands before calling an iterative solver
           427 MiB given to the printing process from OS
           200 MiB allocation reported by mallinfo(arena+hblkhd)
         85747 MiB available memory on the node where the printing process lives
------------------
     ethr =  1.14E-10,  avg # of iterations =  2.0

     negative rho (up, down):  1.708E-04 0.000E+00

     add environment contribution to local potential
     Polarization accuracy = 7.5E-12, # of iterations =  37

     total cpu time spent up to now is     6570.9 secs

     total energy              =   -3427.50069768 Ry
     estimated scf accuracy    <       0.00000024 Ry
     electrostatic embedding   =      -0.01142378 Ry
     cavitation energy         =       0.02172706 Ry
     PV energy                 =      -0.08067868 Ry
     correction to one-el term =     192.80144598 Ry

     iteration # 21     ecut=    50.00 Ry     beta= 0.70
     Davidson diagonalization with overlap

---- Real-time Memory Report at c_bands before calling an iterative solver
           430 MiB given to the printing process from OS
           200 MiB allocation reported by mallinfo(arena+hblkhd)
         85860 MiB available memory on the node where the printing process lives
------------------
     ethr =  6.66E-11,  avg # of iterations =  2.0

     negative rho (up, down):  1.851E-04 0.000E+00

     add environment contribution to local potential
     Polarization accuracy = 7.6E-12, # of iterations =  37

     total cpu time spent up to now is     6860.9 secs

     total energy              =   -3427.50069918 Ry
     estimated scf accuracy    <       0.00000019 Ry
     electrostatic embedding   =      -0.01141865 Ry
     cavitation energy         =       0.02172715 Ry
     PV energy                 =      -0.08067747 Ry
     correction to one-el term =     192.80539566 Ry

     iteration # 22     ecut=    50.00 Ry     beta= 0.70
     Davidson diagonalization with overlap

---- Real-time Memory Report at c_bands before calling an iterative solver
           433 MiB given to the printing process from OS
           200 MiB allocation reported by mallinfo(arena+hblkhd)
        100379 MiB available memory on the node where the printing process lives
------------------
     ethr =  5.37E-11,  avg # of iterations =  2.0

     negative rho (up, down):  1.853E-04 0.000E+00

     add environment contribution to local potential
     Polarization accuracy = 6.9E-12, # of iterations =  37

     total cpu time spent up to now is     7177.6 secs

     total energy              =   -3427.50070022 Ry
     estimated scf accuracy    <       0.00000020 Ry
     electrostatic embedding   =      -0.01141714 Ry
     cavitation energy         =       0.02172740 Ry
     PV energy                 =      -0.08067666 Ry
     correction to one-el term =     192.80594322 Ry

     iteration # 23     ecut=    50.00 Ry     beta= 0.70
     Davidson diagonalization with overlap

---- Real-time Memory Report at c_bands before calling an iterative solver
           436 MiB given to the printing process from OS
           200 MiB allocation reported by mallinfo(arena+hblkhd)
        100351 MiB available memory on the node where the printing process lives
------------------
     ethr =  5.37E-11,  avg # of iterations =  1.0

     negative rho (up, down):  1.715E-04 0.000E+00

     add environment contribution to local potential
     Polarization accuracy = 7.4E-12, # of iterations =  38

     total cpu time spent up to now is     7437.7 secs

     total energy              =   -3427.50070127 Ry
     estimated scf accuracy    <       0.00000017 Ry
     electrostatic embedding   =      -0.01141657 Ry
     cavitation energy         =       0.02172772 Ry
     PV energy                 =      -0.08067584 Ry
     correction to one-el term =     192.80483389 Ry

     iteration # 24     ecut=    50.00 Ry     beta= 0.70
     Davidson diagonalization with overlap

---- Real-time Memory Report at c_bands before calling an iterative solver
           438 MiB given to the printing process from OS
           200 MiB allocation reported by mallinfo(arena+hblkhd)
        100382 MiB available memory on the node where the printing process lives
------------------
     ethr =  4.60E-11,  avg # of iterations =  1.0

     negative rho (up, down):  1.966E-04 0.000E+00

     add environment contribution to local potential
     Polarization accuracy = 9.2E-12, # of iterations =  37

     total cpu time spent up to now is     7738.9 secs

     total energy              =   -3427.50070238 Ry
     estimated scf accuracy    <       0.00000015 Ry
     electrostatic embedding   =      -0.01141687 Ry
     cavitation energy         =       0.02172797 Ry
     PV energy                 =      -0.08067537 Ry
     correction to one-el term =     192.80267468 Ry

     iteration # 25     ecut=    50.00 Ry     beta= 0.70
     Davidson diagonalization with overlap

---- Real-time Memory Report at c_bands before calling an iterative solver
           440 MiB given to the printing process from OS
           200 MiB allocation reported by mallinfo(arena+hblkhd)
        100380 MiB available memory on the node where the printing process lives
------------------
     ethr =  4.19E-11,  avg # of iterations =  2.0

     negative rho (up, down):  2.050E-04 0.000E+00

     add environment contribution to local potential
     Polarization accuracy = 6.0E-12, # of iterations =  37

     total cpu time spent up to now is     8033.0 secs

     total energy              =   -3427.50070875 Ry
     estimated scf accuracy    <       0.00000013 Ry
     electrostatic embedding   =      -0.01140989 Ry
     cavitation energy         =       0.02172723 Ry
     PV energy                 =      -0.08067574 Ry
     correction to one-el term =     192.80873506 Ry

     iteration # 26     ecut=    50.00 Ry     beta= 0.70
     Davidson diagonalization with overlap

---- Real-time Memory Report at c_bands before calling an iterative solver
           444 MiB given to the printing process from OS
           200 MiB allocation reported by mallinfo(arena+hblkhd)
        100374 MiB available memory on the node where the printing process lives
------------------
     ethr =  3.69E-11,  avg # of iterations =  5.0

     negative rho (up, down):  2.099E-04 0.000E+00

     add environment contribution to local potential
     Polarization accuracy = 8.9E-13, # of iterations =  39

     total cpu time spent up to now is     8287.4 secs

     total energy              =   -3427.50072554 Ry
     estimated scf accuracy    <       0.00000021 Ry
     electrostatic embedding   =      -0.01140573 Ry
     cavitation energy         =       0.02172700 Ry
     PV energy                 =      -0.08067581 Ry
     correction to one-el term =     192.81145777 Ry

     iteration # 27     ecut=    50.00 Ry     beta= 0.70
     Davidson diagonalization with overlap

---- Real-time Memory Report at c_bands before calling an iterative solver
           447 MiB given to the printing process from OS
           200 MiB allocation reported by mallinfo(arena+hblkhd)
        100368 MiB available memory on the node where the printing process lives
------------------
     ethr =  3.69E-11,  avg # of iterations =  3.0

     negative rho (up, down):  1.936E-04 0.000E+00

     add environment contribution to local potential
     Polarization accuracy = 9.1E-12, # of iterations =  37

     total cpu time spent up to now is     8597.4 secs

     total energy              =   -3427.50073701 Ry
     estimated scf accuracy    <       0.00000007 Ry
     electrostatic embedding   =      -0.01140453 Ry
     cavitation energy         =       0.02172656 Ry
     PV energy                 =      -0.08067667 Ry
     correction to one-el term =     192.81435380 Ry

     iteration # 28     ecut=    50.00 Ry     beta= 0.70
     Davidson diagonalization with overlap

---- Real-time Memory Report at c_bands before calling an iterative solver
           449 MiB given to the printing process from OS
           200 MiB allocation reported by mallinfo(arena+hblkhd)
        100367 MiB available memory on the node where the printing process lives
------------------
     ethr =  2.05E-11,  avg # of iterations =  2.0

     negative rho (up, down):  1.971E-04 0.000E+00

     add environment contribution to local potential
     Polarization accuracy = 8.0E-12, # of iterations =  37

     total cpu time spent up to now is     8890.9 secs

     total energy              =   -3427.50073861 Ry
     estimated scf accuracy    <       0.00000005 Ry
     electrostatic embedding   =      -0.01141075 Ry
     cavitation energy         =       0.02172702 Ry
     PV energy                 =      -0.08067670 Ry
     correction to one-el term =     192.81038474 Ry

     iteration # 29     ecut=    50.00 Ry     beta= 0.70
     Davidson diagonalization with overlap

---- Real-time Memory Report at c_bands before calling an iterative solver
           452 MiB given to the printing process from OS
           200 MiB allocation reported by mallinfo(arena+hblkhd)
        100358 MiB available memory on the node where the printing process lives
------------------
     ethr =  1.47E-11,  avg # of iterations =  5.0

     negative rho (up, down):  1.812E-04 0.000E+00

     add environment contribution to local potential
     Polarization accuracy = 6.8E-12, # of iterations =  38

     total cpu time spent up to now is     9165.1 secs

     total energy              =   -3427.50075178 Ry
     estimated scf accuracy    <       0.00000003 Ry
     electrostatic embedding   =      -0.01141009 Ry
     cavitation energy         =       0.02172690 Ry
     PV energy                 =      -0.08067689 Ry
     correction to one-el term =     192.81101676 Ry

     iteration # 30     ecut=    50.00 Ry     beta= 0.70
     Davidson diagonalization with overlap

---- Real-time Memory Report at c_bands before calling an iterative solver
           456 MiB given to the printing process from OS
           200 MiB allocation reported by mallinfo(arena+hblkhd)
        100360 MiB available memory on the node where the printing process lives
------------------
     ethr =  8.01E-12,  avg # of iterations =  2.0

     negative rho (up, down):  1.735E-04 0.000E+00

     add environment contribution to local potential
     Polarization accuracy = 5.3E-12, # of iterations =  37

     total cpu time spent up to now is     9445.2 secs

     total energy              =   -3427.50075344 Ry
     estimated scf accuracy    <       0.00000001 Ry
     electrostatic embedding   =      -0.01141561 Ry
     cavitation energy         =       0.02172732 Ry
     PV energy                 =      -0.08067680 Ry
     correction to one-el term =     192.80692931 Ry

     iteration # 31     ecut=    50.00 Ry     beta= 0.70
     Davidson diagonalization with overlap

---- Real-time Memory Report at c_bands before calling an iterative solver
           457 MiB given to the printing process from OS
           200 MiB allocation reported by mallinfo(arena+hblkhd)
        100360 MiB available memory on the node where the printing process lives
------------------
     ethr =  3.00E-12,  avg # of iterations =  2.0

     negative rho (up, down):  1.649E-04 0.000E+00

     add environment contribution to local potential
     Polarization accuracy = 3.5E-12, # of iterations =  37

     total cpu time spent up to now is     9695.3 secs

     total energy              =   -3427.50075563 Ry
     estimated scf accuracy    <          5.7E-09 Ry
     electrostatic embedding   =      -0.01141768 Ry
     cavitation energy         =       0.02172755 Ry
     PV energy                 =      -0.08067660 Ry
     correction to one-el term =     192.80487479 Ry

     iteration # 32     ecut=    50.00 Ry     beta= 0.70
     Davidson diagonalization with overlap

---- Real-time Memory Report at c_bands before calling an iterative solver
           459 MiB given to the printing process from OS
           200 MiB allocation reported by mallinfo(arena+hblkhd)
        100362 MiB available memory on the node where the printing process lives
------------------
     ethr =  1.59E-12,  avg # of iterations =  5.0

     negative rho (up, down):  1.628E-04 0.000E+00

     add environment contribution to local potential
     Polarization accuracy = 2.5E-12, # of iterations =  37

     total cpu time spent up to now is     9932.4 secs

     total energy              =   -3427.50075605 Ry
     estimated scf accuracy    <          4.9E-09 Ry
     electrostatic embedding   =      -0.01141922 Ry
     cavitation energy         =       0.02172779 Ry
     PV energy                 =      -0.08067621 Ry
     correction to one-el term =     192.80264792 Ry

     iteration # 33     ecut=    50.00 Ry     beta= 0.70
     Davidson diagonalization with overlap

---- Real-time Memory Report at c_bands before calling an iterative solver
           460 MiB given to the printing process from OS
           200 MiB allocation reported by mallinfo(arena+hblkhd)
        100362 MiB available memory on the node where the printing process lives
------------------
     ethr =  1.37E-12,  avg # of iterations =  4.0

     negative rho (up, down):  1.592E-04 0.000E+00

     add environment contribution to local potential
     Polarization accuracy = 3.1E-12, # of iterations =  37

     total cpu time spent up to now is    10193.3 secs

     total energy              =   -3427.50075601 Ry
     estimated scf accuracy    <          4.5E-09 Ry
     electrostatic embedding   =      -0.01141883 Ry
     cavitation energy         =       0.02172782 Ry
     PV energy                 =      -0.08067604 Ry
     correction to one-el term =     192.80237273 Ry

     iteration # 34     ecut=    50.00 Ry     beta= 0.70
     Davidson diagonalization with overlap

---- Real-time Memory Report at c_bands before calling an iterative solver
           462 MiB given to the printing process from OS
           200 MiB allocation reported by mallinfo(arena+hblkhd)
        100359 MiB available memory on the node where the printing process lives
------------------
     ethr =  1.25E-12,  avg # of iterations =  3.0

     negative rho (up, down):  1.621E-04 0.000E+00

     add environment contribution to local potential
     Polarization accuracy = 2.1E-12, # of iterations =  38

     total cpu time spent up to now is    10446.8 secs

     total energy              =   -3427.50075580 Ry
     estimated scf accuracy    <          2.9E-09 Ry
     electrostatic embedding   =      -0.01141980 Ry
     cavitation energy         =       0.02172794 Ry
     PV energy                 =      -0.08067588 Ry
     correction to one-el term =     192.80128469 Ry

     iteration # 35     ecut=    50.00 Ry     beta= 0.70
     Davidson diagonalization with overlap

---- Real-time Memory Report at c_bands before calling an iterative solver
           463 MiB given to the printing process from OS
           200 MiB allocation reported by mallinfo(arena+hblkhd)
        100358 MiB available memory on the node where the printing process lives
------------------
     ethr =  8.11E-13,  avg # of iterations =  5.0

     negative rho (up, down):  1.655E-04 0.000E+00

     add environment contribution to local potential
     Polarization accuracy = 1.8E-12, # of iterations =  37

     total cpu time spent up to now is    10704.5 secs

     total energy              =   -3427.50075678 Ry
     estimated scf accuracy    <          1.1E-09 Ry
     electrostatic embedding   =      -0.01141866 Ry
     cavitation energy         =       0.02172785 Ry
     PV energy                 =      -0.08067593 Ry
     correction to one-el term =     192.80220006 Ry

     iteration # 36     ecut=    50.00 Ry     beta= 0.70
     Davidson diagonalization with overlap

---- Real-time Memory Report at c_bands before calling an iterative solver
           465 MiB given to the printing process from OS
           200 MiB allocation reported by mallinfo(arena+hblkhd)
        100354 MiB available memory on the node where the printing process lives
------------------
     ethr =  2.93E-13,  avg # of iterations =  2.0

     negative rho (up, down):  1.695E-04 0.000E+00

     the potential shift due to the Gaussian-smeared nuclei is    -1.2789 ev

     total cpu time spent up to now is    11031.0 secs

     End of self-consistent calculation

          k = 0.2500 0.2666 0.0000 ( 35929 PWs)   bands (ev):

   -79.9143 -79.9102 -79.8964 -79.8923 -79.6166 -79.6125 -79.5991 -79.5951
   -79.1912 -79.1873 -79.0936 -79.0893 -50.2758 -50.2706 -50.2580 -50.2527
   -49.8919 -49.8740 -49.8317 -49.8142 -49.8111 -49.7943 -49.7936 -49.7764
   -49.5577 -49.5528 -49.5457 -49.5282 -49.5003 -49.4856 -49.4824 -49.4713
   -49.4677 -49.4597 -49.4574 -49.4538 -49.4422 -49.4400 -49.2988 -49.2942
   -49.0819 -49.0422 -48.9949 -48.9899 -48.9775 -48.9652 -48.8900 -48.8760
   -25.4784 -25.3944 -25.2688 -25.0203 -24.9840 -24.9169 -24.4480 -24.4272
   -24.4062 -24.3362 -24.3343 -24.2116 -24.1443 -24.0578 -24.0432 -23.9219
   -23.7792 -23.6522 -23.6186 -23.4697 -23.4494 -23.4256 -23.3494 -23.2467
   -23.2001 -23.1045 -23.0801 -23.0527 -13.7315 -13.7145 -13.5913 -13.1322
   -13.1105 -13.0104 -12.7457 -12.7261 -12.7130 -12.6932 -12.5979 -12.5324
   -12.4951 -12.3970 -12.2442 -12.1515 -12.1375 -11.9797 -11.9558 -11.9143
   -11.6089 -11.5964 -11.5822 -11.5667 -11.5647 -11.4355 -11.4271 -11.0741
   -11.0232 -11.0055 -10.9244 -10.9049 -10.8812 -10.7023 -10.6217 -10.5794
   -10.5083 -10.4999 -10.4461 -10.4089 -10.2367 -10.1884 -10.0703  -9.9994
    -9.9888  -9.9886  -9.8828  -9.8741  -9.7743  -9.7217  -9.7096  -9.6162
    -9.5462  -9.3977  -9.3517  -9.3327  -9.2757  -9.1531  -9.1524  -9.0771
    -9.0437  -8.9983  -8.8638  -8.7738  -8.7696  -8.6331  -8.6273  -8.4946
    -8.4614  -8.4031  -8.3720  -8.2739  -8.2200  -8.1628  -8.1617  -8.0394
    -7.9486  -7.9404  -7.8290  -7.8064  -7.7284  -7.7258  -7.5801  -7.4200
    -6.8185  -6.7983  -6.6855  -6.5774  -6.5302  -6.4711  -6.3755  -6.3751
    -6.3612  -6.3086  -6.2918  -6.2741  -6.2050  -6.1984  -6.1012  -6.0273
    -5.9320  -5.9179  -5.8704  -5.7648  -5.7023  -5.5338  -5.4978  -5.4785
    -5.4102  -5.3298  -5.2683  -5.2174  -5.0146  -5.0079  -4.9823  -4.9621
    -4.9317  -4.9083  -4.5816  -4.5272  -4.0507  -3.6642  -3.6016  -3.5246
    -3.2985  -3.2940  -2.9182  -2.4574  -2.4483  -2.2895  -2.1880  -2.1525
    -2.1225  -2.0228  -1.9792  -1.7605  -1.6483  -1.6440  -1.4904  -1.1497

     occupation numbers 
     1.0000   1.0000   1.0000   1.0000   1.0000   1.0000   1.0000   1.0000
     1.0000   1.0000   1.0000   1.0000   1.0000   1.0000   1.0000   1.0000
     1.0000   1.0000   1.0000   1.0000   1.0000   1.0000   1.0000   1.0000
     1.0000   1.0000   1.0000   1.0000   1.0000   1.0000   1.0000   1.0000
     1.0000   1.0000   1.0000   1.0000   1.0000   1.0000   1.0000   1.0000
     1.0000   1.0000   1.0000   1.0000   1.0000   1.0000   1.0000   1.0000
     1.0000   1.0000   1.0000   1.0000   1.0000   1.0000   1.0000   1.0000
     1.0000   1.0000   1.0000   1.0000   1.0000   1.0000   1.0000   1.0000
     1.0000   1.0000   1.0000   1.0000   1.0000   1.0000   1.0000   1.0000
     1.0000   1.0000   1.0000   1.0000   1.0000   1.0000   1.0000   1.0000
     1.0000   1.0000   1.0000   1.0000   1.0000   1.0000   1.0000   1.0000
     1.0000   1.0000   1.0000   1.0000   1.0000   1.0000   1.0000   1.0000
     1.0000   1.0000   1.0000   1.0000   1.0000   1.0000   1.0000   1.0000
     1.0000   1.0000   1.0000   1.0000   1.0000   1.0000   1.0000   1.0000
     1.0000   1.0000   1.0000   1.0000   1.0000   1.0000   1.0000   1.0000
     1.0000   1.0000   1.0000   1.0000   1.0000   1.0000   1.0000   1.0000
     1.0000   1.0000   1.0000   1.0000   1.0000   1.0000   1.0000   1.0000
     1.0000   1.0000   1.0000   1.0000   1.0000   1.0000   1.0000   1.0000
     1.0000   1.0000   1.0000   1.0000   1.0000   1.0000   1.0000   1.0000
     1.0000   1.0000   1.0000   1.0000   1.0000   1.0000   1.0000   1.0000
     1.0063   1.0076   1.0185   1.0368   1.0470   1.0605   1.0790   1.0791
     1.0808   1.0832   1.0823   1.0804   1.0605   1.0575   0.9859   0.8973
     0.7463   0.7215   0.6354   0.4433   0.3398   0.1351   0.1066   0.0933
     0.0563   0.0290   0.0167   0.0102   0.0011   0.0010   0.0007   0.0005
     0.0004   0.0003   0.0000   0.0000   0.0000   0.0000   0.0000   0.0000
     0.0000   0.0000   0.0000   0.0000   0.0000   0.0000   0.0000   0.0000
     0.0000   0.0000   0.0000   0.0000   0.0000   0.0000   0.0000   0.0000

     the Fermi energy is    -5.7399 ev

!    total energy              =   -3427.50075682 Ry
     estimated scf accuracy    <          5.0E-10 Ry
     smearing contrib. (-TS)   =       0.04040862 Ry
     internal energy E=F+TS    =   -3427.54116544 Ry

     The total energy is F=E-TS. E is the sum of the following terms:
     one-electron contribution =  -25376.99946294 Ry
     hartree contribution      =   12648.74552715 Ry
     xc contribution           =    -441.38593835 Ry
     ewald contribution        =    9816.07895351 Ry
     one-center paw contrib.   =    -266.71298821 Ry
      -> PAW hartree energy AE =      48.48456152 Ry
      -> PAW hartree energy PS =     -48.27720232 Ry
      -> PAW xc energy AE      =     -32.77340014 Ry
      -> PAW xc energy PS      =      13.47805219 Ry
      -> total E_H with PAW    =   12648.95288635 Ry
      -> total E_XC with PAW   =    -460.68128630 Ry
     electrostatic embedding   =      -0.01141778 Ry
     cavitation energy         =       0.02172775 Ry
     PV energy                 =      -0.08067603 Ry
     correction to one-el term =     192.80310946 Ry

     WARNING: you are using the parabolic pbc correction;
              the potential shift above must be added to 
              band and Fermi energies.

     convergence has been achieved in  36 iterations

     negative rho (up, down):  1.695E-04 0.000E+00
     The dielectric solvent contribution to forces
     atom    1 type  1   force =    -0.00000001   -0.00000003    0.06366796
     atom    2 type  1   force =     0.00000001   -0.00000003    0.06365919
     atom    3 type  1   force =    -0.00000000    0.00000002    0.01634357
     atom    4 type  1   force =     0.00000000    0.00000002    0.01634328
     atom    5 type  2   force =     0.00000039    0.00000002   -0.02090144
     atom    6 type  2   force =    -0.00000039    0.00000002   -0.02090145
     atom    7 type  1   force =     0.00000021   -0.00622129   -0.00153349
     atom    8 type  1   force =    -0.00000021   -0.00622129   -0.00153349
     atom    9 type  2   force =    -0.00000000   -0.00000002    0.02464288
     atom   10 type  2   force =     0.00000000   -0.00000002    0.02463946
     atom   11 type  1   force =     0.00000021    0.00622129   -0.00153348
     atom   12 type  1   force =    -0.00000021    0.00622129   -0.00153348
     atom   13 type  1   force =    -0.00000000    0.00000000   -0.00131684
     atom   14 type  1   force =     0.00000000    0.00000000   -0.00131693
     atom   15 type  1   force =    -0.00000000   -0.00000000    0.00048715
     atom   16 type  1   force =     0.00000000   -0.00000000    0.00048680
     atom   17 type  2   force =    -0.00000000    0.00000000   -0.00059764
     atom   18 type  2   force =     0.00000000    0.00000000   -0.00059764
     atom   19 type  1   force =     0.00000002   -0.00035126   -0.00022418
     atom   20 type  1   force =    -0.00000002   -0.00035126   -0.00022418
     atom   21 type  2   force =     0.00000006   -0.00000000   -0.00059814
     atom   22 type  2   force =    -0.00000006   -0.00000000   -0.00059814
     atom   23 type  1   force =     0.00000002    0.00035126   -0.00022418
     atom   24 type  1   force =    -0.00000002    0.00035126   -0.00022418
     atom   25 type  1   force =    -0.00000000   -0.00000000   -0.00093593
     atom   26 type  1   force =     0.00000000   -0.00000000   -0.00093558
     atom   27 type  1   force =    -0.00000000    0.00000000    0.00086909
     atom   28 type  1   force =     0.00000000    0.00000000    0.00086918
     atom   29 type  2   force =     0.00000039    0.00000003    0.01971703
     atom   30 type  2   force =    -0.00000039    0.00000003    0.01971703
     atom   31 type  1   force =     0.00000021   -0.00622379    0.00108437
     atom   32 type  1   force =    -0.00000021   -0.00622379    0.00108437
     atom   33 type  2   force =    -0.00000000   -0.00000002   -0.02584713
     atom   34 type  2   force =     0.00000000   -0.00000002   -0.02584372
     atom   35 type  1   force =     0.00000021    0.00622379    0.00108435
     atom   36 type  1   force =    -0.00000021    0.00622379    0.00108435
     atom   37 type  1   force =    -0.00000000    0.00000002   -0.01679029
     atom   38 type  1   force =     0.00000000    0.00000002   -0.01679000
     atom   39 type  1   force =    -0.00000000   -0.00000003   -0.06413131
     atom   40 type  1   force =     0.00000000   -0.00000003   -0.06412252
 

     Forces acting on atoms (cartesian axes, Ry/au):

     atom    1 type  1   force =     0.00000000    0.00000000    0.12653808
     atom    2 type  1   force =     0.00000000    0.00000000    0.12653759
     atom    3 type  1   force =     0.00000000    0.00000000    0.05676937
     atom    4 type  1   force =     0.00000000    0.00000000    0.05677002
     atom    5 type  2   force =    -0.00000026   -0.00000000   -0.02134805
     atom    6 type  2   force =     0.00000026    0.00000000   -0.02134805
     atom    7 type  1   force =     0.00000226    0.03199476   -0.00716744
     atom    8 type  1   force =    -0.00000226    0.03199476   -0.00716744
     atom    9 type  2   force =     0.00000000    0.00000000   -0.08100721
     atom   10 type  2   force =     0.00000000    0.00000000   -0.08101263
     atom   11 type  1   force =     0.00000226   -0.03199476   -0.00716744
     atom   12 type  1   force =    -0.00000226   -0.03199476   -0.00716744
     atom   13 type  1   force =     0.00000000    0.00000000    0.00075493
     atom   14 type  1   force =     0.00000000    0.00000000    0.00075386
     atom   15 type  1   force =     0.00000000    0.00000000    0.00752980
     atom   16 type  1   force =     0.00000000    0.00000000    0.00760032
     atom   17 type  2   force =     0.00000000    0.00000000    0.00000000
     atom   18 type  2   force =     0.00000000    0.00000000    0.00000000
     atom   19 type  1   force =     0.00000701   -0.04246253    0.00000000
     atom   20 type  1   force =    -0.00000701   -0.04246253    0.00000000
     atom   21 type  2   force =     0.00001128    0.00000000    0.00000000
     atom   22 type  2   force =    -0.00001128    0.00000000    0.00000000
     atom   23 type  1   force =     0.00000701    0.04246253    0.00000000
     atom   24 type  1   force =    -0.00000701    0.04246253    0.00000000
     atom   25 type  1   force =     0.00000000    0.00000000   -0.00752980
     atom   26 type  1   force =     0.00000000    0.00000000   -0.00760032
     atom   27 type  1   force =     0.00000000    0.00000000   -0.00075493
     atom   28 type  1   force =     0.00000000    0.00000000   -0.00075386
     atom   29 type  2   force =    -0.00000026    0.00000000    0.02134805
     atom   30 type  2   force =     0.00000026   -0.00000000    0.02134805
     atom   31 type  1   force =     0.00000226    0.03199476    0.00716744
     atom   32 type  1   force =    -0.00000226    0.03199476    0.00716744
     atom   33 type  2   force =     0.00000000    0.00000000    0.08100721
     atom   34 type  2   force =     0.00000000    0.00000000    0.08101263
     atom   35 type  1   force =     0.00000226   -0.03199476    0.00716744
     atom   36 type  1   force =    -0.00000226   -0.03199476    0.00716744
     atom   37 type  1   force =     0.00000000    0.00000000   -0.05676937
     atom   38 type  1   force =     0.00000000    0.00000000   -0.05677002
     atom   39 type  1   force =     0.00000000    0.00000000   -0.12653808
     atom   40 type  1   force =     0.00000000    0.00000000   -0.12653759
     The non-local contrib.  to forces
     atom    1 type  1   force =     0.00000000    0.00000000    1.38403805
     atom    2 type  1   force =     0.00000000    0.00000000    1.38408190
     atom    3 type  1   force =     0.00000000    0.00000000    1.17976628
     atom    4 type  1   force =     0.00000000    0.00000000    1.17977316
     atom    5 type  2   force =     0.00000012    0.00000000   -0.07274584
     atom    6 type  2   force =    -0.00000012    0.00000000   -0.07274584
     atom    7 type  1   force =     0.00001005   -0.00362592   -0.20940739
     atom    8 type  1   force =    -0.00001005   -0.00362592   -0.20940739
     atom    9 type  2   force =     0.00000000    0.00000000   -0.07578265
     atom   10 type  2   force =     0.00000000    0.00000000   -0.07574401
     atom   11 type  1   force =     0.00001005    0.00362592   -0.20940739
     atom   12 type  1   force =    -0.00001005    0.00362592   -0.20940739
     atom   13 type  1   force =     0.00000000    0.00000000    0.03212844
     atom   14 type  1   force =     0.00000000    0.00000000    0.03211609
     atom   15 type  1   force =     0.00000000    0.00000000    0.28187981
     atom   16 type  1   force =     0.00000000    0.00000000    0.28174220
     atom   17 type  2   force =     0.00000000    0.00000000    0.00000000
     atom   18 type  2   force =     0.00000000    0.00000000    0.00000000
     atom   19 type  1   force =    -0.00010779    0.02162397    0.00000000
     atom   20 type  1   force =     0.00010779    0.02162397    0.00000000
     atom   21 type  2   force =     0.00010479   -0.00000000    0.00000000
     atom   22 type  2   force =    -0.00010479    0.00000000    0.00000000
     atom   23 type  1   force =    -0.00010779   -0.02162397    0.00000000
     atom   24 type  1   force =     0.00010779   -0.02162397    0.00000000
     atom   25 type  1   force =     0.00000000    0.00000000   -0.28187981
     atom   26 type  1   force =     0.00000000    0.00000000   -0.28174220
     atom   27 type  1   force =     0.00000000    0.00000000   -0.03212844
     atom   28 type  1   force =     0.00000000    0.00000000   -0.03211609
     atom   29 type  2   force =     0.00000012    0.00000000    0.07274584
     atom   30 type  2   force =    -0.00000012    0.00000000    0.07274584
     atom   31 type  1   force =     0.00001005   -0.00362592    0.20940739
     atom   32 type  1   force =    -0.00001005   -0.00362592    0.20940739
     atom   33 type  2   force =     0.00000000    0.00000000    0.07578265
     atom   34 type  2   force =     0.00000000    0.00000000    0.07574401
     atom   35 type  1   force =     0.00001005    0.00362592    0.20940739
     atom   36 type  1   force =    -0.00001005    0.00362592    0.20940739
     atom   37 type  1   force =     0.00000000    0.00000000   -1.17976628
     atom   38 type  1   force =     0.00000000    0.00000000   -1.17977316
     atom   39 type  1   force =     0.00000000    0.00000000   -1.38403805
     atom   40 type  1   force =     0.00000000    0.00000000   -1.38408190
     The ionic contribution  to forces
     atom    1 type  1   force =    -0.00000000    0.00000013  -98.69805703
     atom    2 type  1   force =    -0.00000000    0.00000013  -98.69804469
     atom    3 type  1   force =    -0.00000000   -0.00000027  -93.38987748
     atom    4 type  1   force =    -0.00000000   -0.00000027  -93.38988780
     atom    5 type  2   force =     0.00028374   -0.00000207 -171.85504062
     atom    6 type  2   force =    -0.00028374   -0.00000207 -171.85504062
     atom    7 type  1   force =     0.00024927   -0.23807869  -60.17620170
     atom    8 type  1   force =    -0.00024927   -0.23807869  -60.17620170
     atom    9 type  2   force =    -0.00000000    0.00000240 -172.60801594
     atom   10 type  2   force =    -0.00000000    0.00000240 -172.60200357
     atom   11 type  1   force =     0.00024927    0.23807919  -60.17619945
     atom   12 type  1   force =    -0.00024927    0.23807919  -60.17619945
     atom   13 type  1   force =    -0.00000000   -0.00000167  -37.13073712
     atom   14 type  1   force =    -0.00000000   -0.00000167  -37.13040806
     atom   15 type  1   force =     0.00000000    0.00000926  -27.79695971
     atom   16 type  1   force =     0.00000000    0.00000927  -27.79392676
     atom   17 type  2   force =    -0.00000000    0.00001579   -0.00024585
     atom   18 type  2   force =     0.00000000    0.00001578   -0.00024584
     atom   19 type  1   force =     0.00110843    0.08156459    0.00000516
     atom   20 type  1   force =    -0.00110843    0.08156459    0.00000516
     atom   21 type  2   force =     0.00121668    0.00011711   -0.00000622
     atom   22 type  2   force =    -0.00121668    0.00011711   -0.00000622
     atom   23 type  1   force =     0.00110843   -0.08171405    0.00000516
     atom   24 type  1   force =    -0.00110843   -0.08171405    0.00000516
     atom   25 type  1   force =     0.00000000    0.00000926   27.79705306
     atom   26 type  1   force =    -0.00000000    0.00000927   27.79401986
     atom   27 type  1   force =    -0.00000000   -0.00000167   37.13090435
     atom   28 type  1   force =    -0.00000000   -0.00000167   37.13057530
     atom   29 type  2   force =     0.00028373   -0.00000207  171.85506161
     atom   30 type  2   force =    -0.00028373   -0.00000207  171.85506161
     atom   31 type  1   force =     0.00024927   -0.23807543   60.17621752
     atom   32 type  1   force =    -0.00024927   -0.23807543   60.17621752
     atom   33 type  2   force =     0.00000000    0.00000240  172.60749769
     atom   34 type  2   force =     0.00000000    0.00000240  172.60148542
     atom   35 type  1   force =     0.00024927    0.23807593   60.17621527
     atom   36 type  1   force =    -0.00024927    0.23807593   60.17621527
     atom   37 type  1   force =    -0.00000000   -0.00000027   93.38980879
     atom   38 type  1   force =     0.00000000   -0.00000027   93.38981911
     atom   39 type  1   force =     0.00000000    0.00000013   98.69857259
     atom   40 type  1   force =     0.00000000    0.00000013   98.69856025
     The local contribution  to forces
     atom    1 type  1   force =    -0.00000000    0.00000000   97.38939696
     atom    2 type  1   force =     0.00000000    0.00000000   97.38935028
     atom    3 type  1   force =    -0.00000000    0.00000000   92.26165734
     atom    4 type  1   force =     0.00000000    0.00000000   92.26166100
     atom    5 type  2   force =    -0.00028878   -0.00000000  171.92054606
     atom    6 type  2   force =     0.00028878    0.00000000  171.92054606
     atom    7 type  1   force =    -0.00025489    0.28057843   60.37510203
     atom    8 type  1   force =     0.00025489    0.28057843   60.37510203
     atom    9 type  2   force =    -0.00000000    0.00000000  172.57134239
     atom   10 type  2   force =     0.00000000    0.00000000  172.56527504
     atom   11 type  1   force =    -0.00025489   -0.28057843   60.37510203
     atom   12 type  1   force =     0.00025489   -0.28057843   60.37510203
     atom   13 type  1   force =     0.00000000    0.00000000   37.09996131
     atom   14 type  1   force =     0.00000000    0.00000000   37.09963660
     atom   15 type  1   force =    -0.00000000    0.00000000   27.52408971
     atom   16 type  1   force =     0.00000000    0.00000000   27.52125863
     atom   17 type  2   force =    -0.00000000    0.00000000   -0.00601727
     atom   18 type  2   force =     0.00000000    0.00000000   -0.00601723
     atom   19 type  1   force =    -0.00100201   -0.14620156   -0.00251398
     atom   20 type  1   force =     0.00100201   -0.14620156   -0.00251398
     atom   21 type  2   force =    -0.00131638    0.00000000   -0.00618768
     atom   22 type  2   force =     0.00131638    0.00000000   -0.00618768
     atom   23 type  1   force =    -0.00100201    0.14584935   -0.00251398
     atom   24 type  1   force =     0.00100201    0.14584935   -0.00251398
     atom   25 type  1   force =     0.00000000    0.00000000  -27.52593310
     atom   26 type  1   force =     0.00000000    0.00000000  -27.52310224
     atom   27 type  1   force =    -0.00000000    0.00000000  -37.10173825
     atom   28 type  1   force =     0.00000000    0.00000000  -37.10141354
     atom   29 type  2   force =    -0.00028877    0.00000000 -171.93301609
     atom   30 type  2   force =     0.00028877    0.00000000 -171.93301609
     atom   31 type  1   force =    -0.00025487    0.28061582  -60.38008512
     atom   32 type  1   force =     0.00025487    0.28061582  -60.38008512
     atom   33 type  2   force =    -0.00000000    0.00000000 -172.58326741
     atom   34 type  2   force =    -0.00000000    0.00000000 -172.57720036
     atom   35 type  1   force =    -0.00025487   -0.28061582  -60.38008512
     atom   36 type  1   force =     0.00025487   -0.28061582  -60.38008512
     atom   37 type  1   force =    -0.00000000    0.00000000  -92.26363291
     atom   38 type  1   force =     0.00000000    0.00000000  -92.26363657
     atom   39 type  1   force =    -0.00000000    0.00000000  -97.39082651
     atom   40 type  1   force =     0.00000000    0.00000000  -97.39077987
     The core correction contribution to forces
     atom    1 type  1   force =     0.00000000    0.00000000   -0.01319710
     atom    2 type  1   force =     0.00000000    0.00000000   -0.01319793
     atom    3 type  1   force =     0.00000000    0.00000000   -0.01236645
     atom    4 type  1   force =     0.00000000    0.00000000   -0.01236652
     atom    5 type  2   force =     0.00000000    0.00000000    0.00000000
     atom    6 type  2   force =     0.00000000    0.00000000    0.00000000
     atom    7 type  1   force =    -0.00000006   -0.00067466    0.00216651
     atom    8 type  1   force =     0.00000006   -0.00067466    0.00216651
     atom    9 type  2   force =     0.00000000    0.00000000    0.00000000
     atom   10 type  2   force =     0.00000000    0.00000000    0.00000000
     atom   11 type  1   force =    -0.00000006    0.00067466    0.00216651
     atom   12 type  1   force =     0.00000006    0.00067466    0.00216651
     atom   13 type  1   force =     0.00000000    0.00000000   -0.00028964
     atom   14 type  1   force =     0.00000000    0.00000000   -0.00028949
     atom   15 type  1   force =    -0.00000000   -0.00000000   -0.00306641
     atom   16 type  1   force =    -0.00000000   -0.00000000   -0.00306383
     atom   17 type  2   force =     0.00000000    0.00000000    0.00000000
     atom   18 type  2   force =     0.00000000    0.00000000    0.00000000
     atom   19 type  1   force =     0.00000103    0.00063701   -0.00000211
     atom   20 type  1   force =    -0.00000103    0.00063701   -0.00000211
     atom   21 type  2   force =     0.00000000    0.00000000    0.00000000
     atom   22 type  2   force =     0.00000000    0.00000000    0.00000000
     atom   23 type  1   force =     0.00000103   -0.00063755   -0.00000211
     atom   24 type  1   force =    -0.00000103   -0.00063755   -0.00000211
     atom   25 type  1   force =    -0.00000000    0.00000000    0.00306399
     atom   26 type  1   force =     0.00000000   -0.00000000    0.00306141
     atom   27 type  1   force =    -0.00000000   -0.00000000    0.00028709
     atom   28 type  1   force =    -0.00000000   -0.00000000    0.00028695
     atom   29 type  2   force =     0.00000000    0.00000000    0.00000000
     atom   30 type  2   force =     0.00000000    0.00000000    0.00000000
     atom   31 type  1   force =    -0.00000006   -0.00067481   -0.00216967
     atom   32 type  1   force =     0.00000006   -0.00067481   -0.00216967
     atom   33 type  2   force =     0.00000000    0.00000000    0.00000000
     atom   34 type  2   force =     0.00000000    0.00000000    0.00000000
     atom   35 type  1   force =    -0.00000006    0.00067481   -0.00216967
     atom   36 type  1   force =     0.00000006    0.00067481   -0.00216967
     atom   37 type  1   force =     0.00000000    0.00000000    0.01236382
     atom   38 type  1   force =    -0.00000000   -0.00000000    0.01236389
     atom   39 type  1   force =    -0.00000000    0.00000000    0.01319501
     atom   40 type  1   force =    -0.00000000    0.00000000    0.01319583
     The Hubbard contrib.    to forces
     atom    1 type  1   force =     0.00000000    0.00000000    0.00000000
     atom    2 type  1   force =     0.00000000    0.00000000    0.00000000
     atom    3 type  1   force =     0.00000000    0.00000000    0.00000000
     atom    4 type  1   force =     0.00000000    0.00000000    0.00000000
     atom    5 type  2   force =     0.00000000    0.00000000    0.00000000
     atom    6 type  2   force =     0.00000000    0.00000000    0.00000000
     atom    7 type  1   force =     0.00000000    0.00000000    0.00000000
     atom    8 type  1   force =     0.00000000    0.00000000    0.00000000
     atom    9 type  2   force =     0.00000000    0.00000000    0.00000000
     atom   10 type  2   force =     0.00000000    0.00000000    0.00000000
     atom   11 type  1   force =     0.00000000    0.00000000    0.00000000
     atom   12 type  1   force =     0.00000000    0.00000000    0.00000000
     atom   13 type  1   force =     0.00000000    0.00000000    0.00000000
     atom   14 type  1   force =     0.00000000    0.00000000    0.00000000
     atom   15 type  1   force =     0.00000000    0.00000000    0.00000000
     atom   16 type  1   force =     0.00000000    0.00000000    0.00000000
     atom   17 type  2   force =     0.00000000    0.00000000    0.00000000
     atom   18 type  2   force =     0.00000000    0.00000000    0.00000000
     atom   19 type  1   force =     0.00000000    0.00000000    0.00000000
     atom   20 type  1   force =     0.00000000    0.00000000    0.00000000
     atom   21 type  2   force =     0.00000000    0.00000000    0.00000000
     atom   22 type  2   force =     0.00000000    0.00000000    0.00000000
     atom   23 type  1   force =     0.00000000    0.00000000    0.00000000
     atom   24 type  1   force =     0.00000000    0.00000000    0.00000000
     atom   25 type  1   force =     0.00000000    0.00000000    0.00000000
     atom   26 type  1   force =     0.00000000    0.00000000    0.00000000
     atom   27 type  1   force =     0.00000000    0.00000000    0.00000000
     atom   28 type  1   force =     0.00000000    0.00000000    0.00000000
     atom   29 type  2   force =     0.00000000    0.00000000    0.00000000
     atom   30 type  2   force =     0.00000000    0.00000000    0.00000000
     atom   31 type  1   force =     0.00000000    0.00000000    0.00000000
[...]
     atom   37 type  1   force =    -0.00000000   -0.00000036   95.81712577
     atom   38 type  1   force =    -0.00000000   -0.00000036   95.81722253
     atom   39 type  1   force =    -0.00000000    0.00000018  103.59825702
     atom   40 type  1   force =    -0.00000000    0.00000018  103.59834115
     The local contribution  to forces
     atom    1 type  1   force =    -0.00000000    0.00000000  102.14209111
     atom    2 type  1   force =     0.00000000    0.00000000  102.14212269
     atom    3 type  1   force =    -0.00000000    0.00000000   94.72260485
     atom    4 type  1   force =    -0.00000000    0.00000000   94.72269748
     atom    5 type  2   force =    -0.00001190   -0.00000000  178.57539726
     atom    6 type  2   force =     0.00001190    0.00000000  178.57539726
     atom    7 type  1   force =     0.00000837    1.12380493   62.60742982
     atom    8 type  1   force =    -0.00000837    1.12380493   62.60742982
     atom    9 type  2   force =    -0.00000000    0.00000000  175.92285330
     atom   10 type  2   force =     0.00000000    0.00000000  175.91683371
     atom   11 type  1   force =     0.00000837   -1.12380493   62.60742982
     atom   12 type  1   force =    -0.00000837   -1.12380493   62.60742982
     atom   13 type  1   force =    -0.00000000    0.00000000   39.09533607
     atom   14 type  1   force =     0.00000000    0.00000000   39.09522745
     atom   15 type  1   force =     0.00000000    0.00000000   27.34969852
     atom   16 type  1   force =     0.00000000    0.00000000   27.34870872
     atom   17 type  2   force =    -0.00000000    0.00000000   -0.00602212
     atom   18 type  2   force =     0.00000000    0.00000000   -0.00602211
     atom   19 type  1   force =    -0.00020571   -1.04630154   -0.00252406
     atom   20 type  1   force =     0.00020571   -1.04630154   -0.00252406
     atom   21 type  2   force =     0.00194398    0.00000000   -0.00620541
     atom   22 type  2   force =    -0.00194398    0.00000000   -0.00620541
     atom   23 type  1   force =    -0.00020571    1.04594462   -0.00252406
     atom   24 type  1   force =     0.00020571    1.04594462   -0.00252406
     atom   25 type  1   force =    -0.00000000    0.00000000  -27.35154929
     atom   26 type  1   force =     0.00000000    0.00000000  -27.35055962
     atom   27 type  1   force =     0.00000000    0.00000000  -39.09712505
     atom   28 type  1   force =     0.00000000    0.00000000  -39.09701643
     atom   29 type  2   force =    -0.00001191    0.00000000 -178.58795311
     atom   30 type  2   force =     0.00001191   -0.00000000 -178.58795311
     atom   31 type  1   force =     0.00000837    1.12383242  -62.61243527
     atom   32 type  1   force =    -0.00000837    1.12383242  -62.61243527
     atom   33 type  2   force =    -0.00000000    0.00000000 -175.93468888
     atom   34 type  2   force =     0.00000000    0.00000000 -175.92866950
     atom   35 type  1   force =     0.00000837   -1.12383242  -62.61243527
     atom   36 type  1   force =    -0.00000837   -1.12383242  -62.61243527
     atom   37 type  1   force =     0.00000000    0.00000000  -94.72461991
     atom   38 type  1   force =     0.00000000    0.00000000  -94.72471254
     atom   39 type  1   force =    -0.00000000    0.00000000 -102.14349053
     atom   40 type  1   force =     0.00000000    0.00000000 -102.14352214
     The core correction contribution to forces
     atom    1 type  1   force =     0.00000000    0.00000000   -0.01179194
     atom    2 type  1   force =    -0.00000000    0.00000000   -0.01179275
     atom    3 type  1   force =    -0.00000000   -0.00000000   -0.01092844
     atom    4 type  1   force =    -0.00000000   -0.00000000   -0.01092848
     atom    5 type  2   force =     0.00000000    0.00000000    0.00000000
     atom    6 type  2   force =     0.00000000    0.00000000    0.00000000
     atom    7 type  1   force =    -0.00000001   -0.00032024    0.00209282
     atom    8 type  1   force =     0.00000001   -0.00032024    0.00209282
     atom    9 type  2   force =     0.00000000    0.00000000    0.00000000
     atom   10 type  2   force =     0.00000000    0.00000000    0.00000000
     atom   11 type  1   force =    -0.00000001    0.00032024    0.00209282
     atom   12 type  1   force =     0.00000001    0.00032024    0.00209282
     atom   13 type  1   force =     0.00000000   -0.00000000   -0.00040767
     atom   14 type  1   force =    -0.00000000    0.00000000   -0.00040762
     atom   15 type  1   force =    -0.00000000    0.00000000   -0.00254123
     atom   16 type  1   force =     0.00000000   -0.00000000   -0.00253954
     atom   17 type  2   force =     0.00000000    0.00000000    0.00000000
     atom   18 type  2   force =     0.00000000    0.00000000    0.00000000
     atom   19 type  1   force =     0.00000031    0.00001839   -0.00000208
     atom   20 type  1   force =    -0.00000031    0.00001839   -0.00000208
     atom   21 type  2   force =     0.00000000    0.00000000    0.00000000
     atom   22 type  2   force =     0.00000000    0.00000000    0.00000000
     atom   23 type  1   force =     0.00000031   -0.00001894   -0.00000208
     atom   24 type  1   force =    -0.00000031   -0.00001894   -0.00000208
     atom   25 type  1   force =     0.00000000    0.00000000    0.00253911
     atom   26 type  1   force =     0.00000000   -0.00000000    0.00253742
     atom   27 type  1   force =     0.00000000    0.00000000    0.00040531
     atom   28 type  1   force =    -0.00000000    0.00000000    0.00040526
     atom   29 type  2   force =     0.00000000    0.00000000    0.00000000
     atom   30 type  2   force =     0.00000000    0.00000000    0.00000000
     atom   31 type  1   force =    -0.00000001   -0.00032035   -0.00209556
     atom   32 type  1   force =     0.00000001   -0.00032035   -0.00209556
     atom   33 type  2   force =     0.00000000    0.00000000    0.00000000
     atom   34 type  2   force =     0.00000000    0.00000000    0.00000000
     atom   35 type  1   force =    -0.00000001    0.00032035   -0.00209556
     atom   36 type  1   force =     0.00000001    0.00032035   -0.00209556
     atom   37 type  1   force =     0.00000000    0.00000000    0.01092601
     atom   38 type  1   force =     0.00000000   -0.00000000    0.01092605
     atom   39 type  1   force =     0.00000000    0.00000000    0.01179024
     atom   40 type  1   force =     0.00000000    0.00000000    0.01179105
     The Hubbard contrib.    to forces
     atom    1 type  1   force =     0.00000000    0.00000000    0.00000000
     atom    2 type  1   force =     0.00000000    0.00000000    0.00000000
     atom    3 type  1   force =     0.00000000    0.00000000    0.00000000
     atom    4 type  1   force =     0.00000000    0.00000000    0.00000000
     atom    5 type  2   force =     0.00000000    0.00000000    0.00000000
     atom    6 type  2   force =     0.00000000    0.00000000    0.00000000
     atom    7 type  1   force =     0.00000000    0.00000000    0.00000000
     atom    8 type  1   force =     0.00000000    0.00000000    0.00000000
     atom    9 type  2   force =     0.00000000    0.00000000    0.00000000
     atom   10 type  2   force =     0.00000000    0.00000000    0.00000000
     atom   11 type  1   force =     0.00000000    0.00000000    0.00000000
     atom   12 type  1   force =     0.00000000    0.00000000    0.00000000
     atom   13 type  1   force =     0.00000000    0.00000000    0.00000000
     atom   14 type  1   force =     0.00000000    0.00000000    0.00000000
     atom   15 type  1   force =     0.00000000    0.00000000    0.00000000
     atom   16 type  1   force =     0.00000000    0.00000000    0.00000000
     atom   17 type  2   force =     0.00000000    0.00000000    0.00000000
     atom   18 type  2   force =     0.00000000    0.00000000    0.00000000
     atom   19 type  1   force =     0.00000000    0.00000000    0.00000000
     atom   20 type  1   force =     0.00000000    0.00000000    0.00000000
     atom   21 type  2   force =     0.00000000    0.00000000    0.00000000
     atom   22 type  2   force =     0.00000000    0.00000000    0.00000000
     atom   23 type  1   force =     0.00000000    0.00000000    0.00000000
     atom   24 type  1   force =     0.00000000    0.00000000    0.00000000
     atom   25 type  1   force =     0.00000000    0.00000000    0.00000000
     atom   26 type  1   force =     0.00000000    0.00000000    0.00000000
     atom   27 type  1   force =     0.00000000    0.00000000    0.00000000
     atom   28 type  1   force =     0.00000000    0.00000000    0.00000000
     atom   29 type  2   force =     0.00000000    0.00000000    0.00000000
     atom   30 type  2   force =     0.00000000    0.00000000    0.00000000
     atom   31 type  1   force =     0.00000000    0.00000000    0.00000000
     atom   32 type  1   force =     0.00000000    0.00000000    0.00000000
     atom   33 type  2   force =     0.00000000    0.00000000    0.00000000
     atom   34 type  2   force =     0.00000000    0.00000000    0.00000000
     atom   35 type  1   force =     0.00000000    0.00000000    0.00000000
     atom   36 type  1   force =     0.00000000    0.00000000    0.00000000
     atom   37 type  1   force =     0.00000000    0.00000000    0.00000000
     atom   38 type  1   force =     0.00000000    0.00000000    0.00000000
     atom   39 type  1   force =     0.00000000    0.00000000    0.00000000
     atom   40 type  1   force =     0.00000000    0.00000000    0.00000000
     The SCF correction term to forces
     atom    1 type  1   force =    -0.00000000   -0.00000000    0.00000052
     atom    2 type  1   force =    -0.00000000   -0.00000000    0.00000050
     atom    3 type  1   force =    -0.00000000    0.00000000    0.00000029
     atom    4 type  1   force =    -0.00000000    0.00000000    0.00000017
     atom    5 type  2   force =    -0.00000042    0.00000000    0.00000056
     atom    6 type  2   force =     0.00000042    0.00000000    0.00000056
     atom    7 type  1   force =    -0.00000009   -0.00000106    0.00000079
     atom    8 type  1   force =     0.00000009   -0.00000106    0.00000079
     atom    9 type  2   force =    -0.00000000   -0.00000000    0.00000282
     atom   10 type  2   force =    -0.00000000   -0.00000000    0.00000257
     atom   11 type  1   force =    -0.00000009    0.00000106    0.00000079
     atom   12 type  1   force =     0.00000009    0.00000106    0.00000079
     atom   13 type  1   force =     0.00000000    0.00000000    0.00000069
     atom   14 type  1   force =     0.00000000    0.00000000   -0.00000036
     atom   15 type  1   force =    -0.00000000   -0.00000000    0.00000066
     atom   16 type  1   force =    -0.00000000   -0.00000000    0.00000040
     atom   17 type  2   force =    -0.00000000    0.00000000    0.00000000
     atom   18 type  2   force =    -0.00000000    0.00000000    0.00000000
     atom   19 type  1   force =    -0.00000104   -0.00000037    0.00000000
     atom   20 type  1   force =     0.00000104   -0.00000037    0.00000000
     atom   21 type  2   force =    -0.00000090   -0.00000000    0.00000001
     atom   22 type  2   force =     0.00000090   -0.00000000    0.00000001
     atom   23 type  1   force =    -0.00000104    0.00000037    0.00000000
     atom   24 type  1   force =     0.00000104    0.00000037    0.00000000
     atom   25 type  1   force =    -0.00000000   -0.00000000   -0.00000064
     atom   26 type  1   force =    -0.00000000   -0.00000000   -0.00000037
     atom   27 type  1   force =    -0.00000000    0.00000000   -0.00000067
     atom   28 type  1   force =     0.00000000    0.00000000    0.00000037
     atom   29 type  2   force =    -0.00000042    0.00000000   -0.00000053
     atom   30 type  2   force =     0.00000042    0.00000000   -0.00000053
     atom   31 type  1   force =    -0.00000009   -0.00000103   -0.00000077
     atom   32 type  1   force =     0.00000009   -0.00000103   -0.00000077
     atom   33 type  2   force =     0.00000000   -0.00000000   -0.00000280
     atom   34 type  2   force =    -0.00000000   -0.00000000   -0.00000255
     atom   35 type  1   force =    -0.00000009    0.00000103   -0.00000077
     atom   36 type  1   force =     0.00000009    0.00000103   -0.00000077
     atom   37 type  1   force =     0.00000000    0.00000000   -0.00000029
     atom   38 type  1   force =    -0.00000000    0.00000000   -0.00000017
     atom   39 type  1   force =    -0.00000000    0.00000000   -0.00000055
     atom   40 type  1   force =    -0.00000000   -0.00000000   -0.00000053

     Total force =     0.000129     Total SCF correction =     0.000007
     Energy error            =      1.8E-07 Ry
     Gradient error          =      4.0E-05 Ry/Bohr

     bfgs converged in  21 scf cycles and  20 bfgs steps
     (criteria: energy <  1.0E-04 Ry, force <  1.0E-04 Ry/Bohr)

     End of BFGS Geometry Optimization

     Final energy             =   -3427.6176926505 Ry

     File /storage/home/mgm6007/ixd4/Maria/Strain2_Files/RuO2-110-0-/RuO2-110-0-.bfgs deleted, as requested
Begin final coordinates

ATOMIC_POSITIONS (crystal)
O             0.0000000000        0.5000000000        0.2801680930
O             0.5000000000        0.5000000000        0.2801709281
O             0.0000000000        0.0000000000        0.3120617900
O             0.5000000000        0.0000000000        0.3120616892
Ru            0.2500001864       -0.0000000000        0.3581260726
Ru            0.7499998136        0.0000000000        0.3581260726
O             0.2500011823        0.3121808510        0.3631813026
O             0.7499988177        0.3121808510        0.3631813026
Ru            0.0000000000        0.5000000000        0.3553927416
Ru            0.5000000000        0.5000000000        0.3553953834
O             0.2500011823        0.6878191490        0.3631813026
O             0.7499988177        0.6878191490        0.3631813026
O             0.0000000000        0.0000000000        0.4142794030
O             0.5000000000        0.0000000000        0.4142794817
O             0.0000000000        0.5000000000        0.4466010195
O             0.5000000000        0.5000000000        0.4466110486
Ru            0.0000000000        0.0000000000        0.5000010000
Ru            0.5000000000        0.0000000000        0.5000010000
O             0.2499982733        0.1881094392        0.5000010000
O             0.7500017267        0.1881094392        0.5000010000
Ru            0.2499938766        0.5000000000        0.5000010000
Ru            0.7500061234        0.5000000000        0.5000010000
O             0.2499982733        0.8118915608        0.5000010000
O             0.7500017267        0.8118915608        0.5000010000
O             0.0000000000        0.5000000000        0.5533999805
O             0.5000000000        0.5000000000        0.5533899514
O             0.0000000000        0.0000000000        0.5857215970
O             0.5000000000        0.0000000000        0.5857215183
Ru            0.2500001864        0.0000000000        0.6418759274
Ru            0.7499998136       -0.0000000000        0.6418759274
O             0.2500011823        0.3121808510        0.6368206974
O             0.7499988177        0.3121808510        0.6368206974
Ru            0.0000000000        0.5000000000        0.6446092584
Ru            0.5000000000        0.5000000000        0.6446066166
O             0.2500011823        0.6878191490        0.6368206974
O             0.7499988177        0.6878191490        0.6368206974
O             0.0000000000        0.0000000000        0.6879392100
O             0.5000000000        0.0000000000        0.6879393108
O             0.0000000000        0.5000000000        0.7198329070
O             0.5000000000        0.5000000000        0.7198300719
End final coordinates



     Writing all to output data dir /storage/home/mgm6007/ixd4/Maria/Strain2_Files/RuO2-110-0-/RuO2-110-0-.save/
 
     init_run     :    310.79s CPU    994.08s WALL (       1 calls)
     electrons    :  19106.86s CPU 135581.97s WALL (      21 calls)
     update_pot   :     26.61s CPU     37.03s WALL (      20 calls)
     forces       :     27.42s CPU     39.14s WALL (      21 calls)

     Called by init_run:
     wfcinit      :      0.48s CPU      0.49s WALL (       1 calls)
     wfcinit:atom :      0.01s CPU      0.01s WALL (       1 calls)
     wfcinit:wfcr :      0.45s CPU      0.46s WALL (       1 calls)
     potinit      :    217.84s CPU    686.67s WALL (       1 calls)
     hinit0       :     92.02s CPU    306.41s WALL (       1 calls)

     Called by electrons:
     c_bands      :    443.48s CPU    600.92s WALL (     348 calls)
     sum_band     :     93.07s CPU    126.16s WALL (     348 calls)
     v_of_rho     :     37.53s CPU     48.02s WALL (     364 calls)
     v_h          :      2.69s CPU      3.30s WALL (     364 calls)
     v_xc         :     36.69s CPU     47.23s WALL (     385 calls)
     newd         :     27.63s CPU     35.01s WALL (     364 calls)
     PAW_pot      :     30.09s CPU     41.15s WALL (     384 calls)
     mix_rho      :    267.72s CPU    352.41s WALL (     348 calls)

     Called by c_bands:
     init_us_2    :      4.32s CPU      4.96s WALL (     717 calls)
     init_us_2:cp :      4.31s CPU      4.96s WALL (     717 calls)
     cegterg      :    426.83s CPU    579.79s WALL (     348 calls)

     Called by sum_band:
     sum_band:wei :      0.14s CPU      0.21s WALL (     348 calls)
     sum_band:loo :     62.35s CPU     85.74s WALL (     348 calls)
     sum_band:buf :      0.00s CPU      0.00s WALL (     348 calls)
     sum_band:ini :      2.10s CPU      2.69s WALL (     348 calls)
     sum_band:cal :     15.61s CPU     21.47s WALL (     368 calls)
     sum_band:bec :      0.13s CPU      0.20s WALL (     368 calls)
     addusdens    :     22.48s CPU     30.08s WALL (     348 calls)
                                        0.00s GPU  (     348 calls)
     addusd:skk   :      3.55s CPU      4.78s WALL (     348 calls)
                                        0.00s GPU  (     348 calls)

     Called by *egterg:
     cdiaghg      :     51.90s CPU     70.56s WALL (    1145 calls)
     cegterg:over :     35.78s CPU     47.85s WALL (     822 calls)
     cegterg:upda :     22.76s CPU     30.92s WALL (     822 calls)
     cegterg:last :     39.52s CPU     52.70s WALL (     558 calls)
     cdiaghg:chol :      2.79s CPU      3.92s WALL (    1145 calls)
     cdiaghg:inve :      1.18s CPU      1.72s WALL (    1145 calls)
     cdiaghg:para :     11.20s CPU     15.33s WALL (    2290 calls)
     h_psi        :    226.66s CPU    310.14s WALL (    1171 calls)
     s_psi        :     32.73s CPU     44.53s WALL (    1171 calls)
     g_psi        :      1.08s CPU      1.28s WALL (     822 calls)

     Called by h_psi:
     h_psi:calbec :     33.33s CPU     45.31s WALL (    1171 calls)
     vloc_psi     :    157.70s CPU    216.42s WALL (    1171 calls)
     add_vuspsi   :     33.46s CPU     45.71s WALL (    1171 calls)

     General routines
     calbec       :     52.42s CPU     71.54s WALL (    1623 calls)
     fft          :   4160.97s CPU   4170.06s WALL (    4946 calls)
     ffts         :     95.40s CPU    118.46s WALL (  143574 calls)
     fftw         :    137.90s CPU    188.68s WALL (  402638 calls)
     interpolate  :   4130.52s CPU   4131.02s WALL (     364 calls)
 
     Parallel routines

     PAW routines
     PAW_pot      :     30.09s CPU     41.15s WALL (     384 calls)
     PAW_symme    :      0.11s CPU      0.13s WALL (     732 calls)
 
     Environ routines
 
     PWSCF        :      5h44m CPU   1d15h45m WALL

 
   This run was terminated on:  15:48:14  18Jul2023            

=------------------------------------------------------------------------------=
   JOB DONE.
=------------------------------------------------------------------------------=
