
     Program PWSCF v.7.2 starts on 18Jul2023 at 16:11: 2 
        Git branch: heads/qe-7.2
        Last git commit: b4c5e8deeb7d1863e7553a87b45f8d22c21926a5
        Last git commit date: Mon Mar 27 16:12:09 2023 +0000
        Last git commit subject: Merge branch 'merge_fix_hubbard' into 'develop'

     This program is part of the open-source Quantum ESPRESSO suite
     for quantum simulation of materials; please cite
         "P. Giannozzi et al., J. Phys.:Condens. Matter 21 395502 (2009);
         "P. Giannozzi et al., J. Phys.:Condens. Matter 29 465901 (2017);
         "P. Giannozzi et al., J. Chem. Phys. 152 154105 (2020);
          URL http://www.quantum-espresso.org", 
     in publications or presentations arising from this work. More details at
     http://www.quantum-espresso.org/quote

     Parallel version (MPI), running on    20 processors

     MPI processes distributed on     1 nodes
     104769 MiB available memory on the printing compute node when the environment starts
 
     Reading input from RuO2-110-0-0125.in

     Current dimensions of program PWSCF are:
     Max number of different atomic species (ntypx) = 10
     Max number of k-points (npk) =  40000
     Max angular momentum in pseudopotentials (lmaxx) =  4
 
     Reading input from environ.in:
     * Environ restarting
     * setting up water environment
     * using electronic solvent mode
     * setting boundary derivatives method to SCCS default
     
     file O.pbe-n-kjpaw_psl.0.1.UPF: wavefunction(s)  2P renormalized
     Message from routine setup:
     using ibrav=0 with symmetry is DISCOURAGED, use correct ibrav instead
 
     R & G space division:  proc/nbgrp/npool/nimage =      20
     Subspace diagonalization in iterative solution of the eigenvalue problem:
     one sub-group per band group will be used
     scalapack distributed-memory algorithm (size of sub-group:  2*  2 procs)

 
     Parallelization info
     --------------------
     sticks:   dense  smooth     PW     G-vecs:    dense   smooth      PW
     Min         276     110     29                54830    13868    1873
     Max         277     111     30                54841    13883    1882
     Sum        5527    2209    585              1096679   277485   37533
 
     Using Slab Decomposition
 


     bravais-lattice index     =            0
     lattice parameter (alat)  =      12.3893  a.u.
     unit-cell volume          =    5808.5831 (a.u.)^3
     number of atoms/cell      =           48
     number of atomic types    =            3
     number of electrons       =       368.00
     number of Kohn-Sham states=          221
     kinetic-energy cutoff     =      50.0000  Ry
     charge density cutoff     =     500.0000  Ry
     scf convergence threshold =      1.0E-09
     mixing beta               =       0.7000
     number of iterations used =            8  local-TF  mixing
     energy convergence thresh.=      1.0E-04
     force convergence thresh. =      1.0E-04
     Exchange-correlation= PBE
                           (   1   4   3   4   0   0   0)
     nstep                     =          200


     ================================================================================
 
                                  Environ Setup Summary

     ================================================================================
 
     Please cite

          O. Andreussi, I. Dabo and N. Marzari, J. Chem. Phys. 136, 064102 (2012)

     in publications or presentations arising from this work.

     ================================================================================
 
     Parameters
     ==========

     compensation onset threshold      =               0.1000E+00
     static permittivity               =                    78.30
     surface tension in input (dyn/cm) =                    47.90
     surface tension in internal units =               0.6153E-04
     external pressure in input (GPa)  =                    -0.36
     external pressure in inter. units =              -0.2447E-04

     Solvent Boundary
     ================

     solvent mode                      =               electronic
     derivatives method                =                    chain
     numerical core for derivatives    =                      fft
     switching function adopted        =                     SCCS
     density limit for vacuum region   =               0.5000E-02
     density limit for bulk solvent    =               0.1000E-03

     Electrostatic Setup
     ===================

     electrostatic problem to solve    =              generalized
     numerical solver adopted          =                       cg
     type of auxiliary density adopted =                     none
     numerical core for poisson        =                      fft
     type of pbc corrections           =                parabolic
     numerical core for corrections    =                      1da

     ================================================================================
 

     celldm(1)=  12.389316  celldm(2)=   0.000000  celldm(3)=   0.000000
     celldm(4)=   0.000000  celldm(5)=   0.000000  celldm(6)=   0.000000

     crystal axes: (cart. coord. in units of alat)
               a(1) = (   1.000000   0.000000   0.000000 )  
               a(2) = (   0.000000   0.904766   0.000000 )  
               a(3) = (   0.000000   0.000000   3.375918 )  

     reciprocal axes: (cart. coord. in units 2 pi/alat)
               b(1) = (  1.000000  0.000000  0.000000 )  
               b(2) = (  0.000000  1.105258  0.000000 )  
               b(3) = (  0.000000  0.000000  0.296216 )  


     PseudoPot. # 1 for O  read from file:
     /gpfs/group/ixd4/default/Simon/pseudopotentials/materialscloud/SSSP_1.3.0_PBE_efficiency/O.pbe-n-kjpaw_psl.0.1.UPF
     MD5 check sum: 0234752ac141de4415c5fc33072bef88
     Pseudo is Projector augmented-wave + core cor, Zval =  6.0
     Generated using "atomic" code by A. Dal Corso  v.5.0.99 svn rev. 10869
     Shape of augmentation charge: BESSEL
     Using radial grid of 1095 points,  4 beta functions with: 
                l(1) =   0
                l(2) =   0
                l(3) =   1
                l(4) =   1
     Q(r) pseudized with 0 coefficients 


     PseudoPot. # 2 for Ru read from file:
     /gpfs/group/ixd4/default/Simon/pseudopotentials/materialscloud/SSSP_1.3.0_PBE_efficiency/Ru_ONCV_PBE-1.0.oncvpsp.upf
     MD5 check sum: be037bb81c227cfb9b1461a9f099f4bd
     Pseudo is Norm-conserving, Zval = 16.0
     Generated using ONCVPSP code by D. R. Hamann
     Using radial grid of 1458 points,  6 beta functions with: 
                l(1) =   0
                l(2) =   0
                l(3) =   1
                l(4) =   1
                l(5) =   2
                l(6) =   2

     PseudoPot. # 3 for H  read from file:
     /gpfs/group/ixd4/default/Simon/pseudopotentials/materialscloud/SSSP_1.3.0_PBE_efficiency/H.pbe-rrkjus_psl.1.0.0.UPF
     MD5 check sum: f52b6d4d1c606e5624b1dc7b2218f220
     Pseudo is Ultrasoft, Zval =  1.0
     Generated using "atomic" code by A. Dal Corso  v.5.1
     Using radial grid of  929 points,  2 beta functions with: 
                l(1) =   0
                l(2) =   0
     Q(r) pseudized with 0 coefficients 


     atomic species   valence    mass     pseudopotential
        O              6.00    15.99940     O ( 1.00)
        Ru            16.00   101.07000     Ru( 1.00)
        H              1.00     1.00794     H ( 1.00)

      4 Sym. Ops. (no inversion) found ( 2 have fractional translation)



   Cartesian axes

     site n.     atom                  positions (alat units)
         1           O   tau(   1) = (   0.0000000   0.4523832   0.8804697  )
         2           O   tau(   2) = (   0.5000000   0.4523832   0.8804697  )
         3           O   tau(   3) = (   0.0000000   0.0000000   0.9930802  )
         4           O   tau(   4) = (   0.5000000   0.0000000   0.9930802  )
         5           Ru  tau(   5) = (   0.2500000   0.0000000   1.1871684  )
         6           Ru  tau(   6) = (   0.7500000   0.0000000   1.1871684  )
         7           O   tau(   7) = (   0.2500000   0.2770530   1.1871684  )
         8           O   tau(   8) = (   0.7500000   0.2770530   1.1871684  )
         9           Ru  tau(   9) = (   0.0000000   0.4523832   1.1871684  )
        10           Ru  tau(  10) = (   0.5000000   0.4523832   1.1871684  )
        11           O   tau(  11) = (   0.2500000   0.6277133   1.1871684  )
        12           O   tau(  12) = (   0.7500000   0.6277133   1.1871684  )
        13           O   tau(  13) = (   0.0000000   0.0000000   1.3812600  )
        14           O   tau(  14) = (   0.5000000   0.0000000   1.3812600  )
        15           O   tau(  15) = (   0.0000000   0.4523832   1.4938705  )
        16           O   tau(  16) = (   0.5000000   0.4523832   1.4938705  )
        17           Ru  tau(  17) = (   0.0000000   0.0000000   1.6879622  )
        18           Ru  tau(  18) = (   0.5000000   0.0000000   1.6879622  )
        19           O   tau(  19) = (   0.2500000   0.1753301   1.6879622  )
        20           O   tau(  20) = (   0.7500000   0.1753301   1.6879622  )
        21           Ru  tau(  21) = (   0.2500000   0.4523832   1.6879622  )
        22           Ru  tau(  22) = (   0.7500000   0.4523832   1.6879622  )
        23           O   tau(  23) = (   0.2500000   0.7294371   1.6879622  )
        24           O   tau(  24) = (   0.7500000   0.7294371   1.6879622  )
        25           O   tau(  25) = (   0.0000000   0.4523832   1.8820504  )
        26           O   tau(  26) = (   0.5000000   0.4523832   1.8820504  )
        27           O   tau(  27) = (   0.0000000   0.0000000   1.9946609  )
        28           O   tau(  28) = (   0.5000000   0.0000000   1.9946609  )
        29           Ru  tau(  29) = (   0.2500000   0.0000000   2.1887525  )
        30           Ru  tau(  30) = (   0.7500000   0.0000000   2.1887525  )
        31           O   tau(  31) = (   0.2500000   0.2770530   2.1887525  )
        32           O   tau(  32) = (   0.7500000   0.2770530   2.1887525  )
        33           Ru  tau(  33) = (   0.0000000   0.4523832   2.1887525  )
        34           Ru  tau(  34) = (   0.5000000   0.4523832   2.1887525  )
        35           O   tau(  35) = (   0.2500000   0.6277133   2.1887525  )
        36           O   tau(  36) = (   0.7500000   0.6277133   2.1887525  )
        37           O   tau(  37) = (   0.0000000   0.0000000   2.3828441  )
        38           O   tau(  38) = (   0.5000000   0.0000000   2.3828441  )
        39           O   tau(  39) = (   0.0000000   0.4523832   2.4954513  )
        40           O   tau(  40) = (   0.5000000   0.4523832   2.4954513  )
        41           H   tau(  41) = (   0.1176350   0.4523832   0.7660733  )
        42           H   tau(  42) = (   0.1176350   0.4523832   2.6098442  )
        43           H   tau(  43) = (   0.6176350   0.4523832   0.7660733  )
        44           H   tau(  44) = (   0.6176350   0.4523832   2.6098442  )
        45           H   tau(  45) = (   0.0000000   0.1033388   0.8786804  )
        46           H   tau(  46) = (   0.0000000   0.1033388   2.4972371  )
        47           H   tau(  47) = (   0.5000000   0.8014275   0.8786804  )
        48           H   tau(  48) = (   0.5000000   0.8014275   2.4972371  )

     number of k points=     1  Marzari-Vanderbilt smearing, width (Ry)=  0.0300
                       cart. coord. in units 2pi/alat
        k(    1) = (   0.2500000   0.2763144   0.0000000), wk =   2.0000000

     Dense  grid:  1096679 G-vectors     FFT dimensions: (  90,  80, 300)

     Smooth grid:   277485 G-vectors     FFT dimensions: (  60,  54, 192)

     Estimated max dynamical RAM per process >     168.29 MB

     Estimated total dynamical RAM >       3.29 GB

     Check: negative core charge=   -0.000001

     Initial potential from superposition of free atoms

     starting charge     367.9933, renormalised to     368.0000

     add environment contribution to local potential
     Polarization accuracy = 7.2E-12, # of iterations =  21

     negative rho (up, down):  1.642E-05 0.000E+00
     Starting wfcs are  240 randomized atomic wfcs
     Checking if some PAW data can be deallocated... 

     total cpu time spent up to now is     2344.5 secs

     per-process dynamical memory:   138.0 Mb

     Self-consistent Calculation

     iteration #  1     ecut=    50.00 Ry     beta= 0.70
     Davidson diagonalization with overlap
     ethr =  1.00E-02,  avg # of iterations =  3.0

     negative rho (up, down):  2.274E-08 0.000E+00

     total cpu time spent up to now is     2896.3 secs

     total energy              =   -3435.17103188 Ry
     estimated scf accuracy    <       9.19414789 Ry
     electrostatic embedding   =      -0.00206524 Ry
     cavitation energy         =       0.02024072 Ry
     PV energy                 =      -0.08958222 Ry
     correction to one-el term =     224.18880730 Ry

     iteration #  2     ecut=    50.00 Ry     beta= 0.70
     Davidson diagonalization with overlap
     ethr =  2.50E-03,  avg # of iterations =  2.0

     total cpu time spent up to now is     3637.3 secs

     total energy              =   -3437.20428809 Ry
     estimated scf accuracy    <       2.85024265 Ry
     electrostatic embedding   =      -0.00336807 Ry
     cavitation energy         =       0.01995359 Ry
     PV energy                 =      -0.09102143 Ry
     correction to one-el term =     224.19320857 Ry

     iteration #  3     ecut=    50.00 Ry     beta= 0.70
     Davidson diagonalization with overlap
     ethr =  7.75E-04,  avg # of iterations =  2.0

     total cpu time spent up to now is     4201.9 secs

     total energy              =   -3437.42484192 Ry
     estimated scf accuracy    <       0.31333344 Ry
     electrostatic embedding   =      -0.00384251 Ry
     cavitation energy         =       0.01988392 Ry
     PV energy                 =      -0.09125085 Ry
     correction to one-el term =     224.19458107 Ry

     iteration #  4     ecut=    50.00 Ry     beta= 0.70
     Davidson diagonalization with overlap
     ethr =  8.51E-05,  avg # of iterations =  5.0

     total cpu time spent up to now is     4824.6 secs

     total energy              =   -3437.43987804 Ry
     estimated scf accuracy    <       0.58322867 Ry
     electrostatic embedding   =      -0.00408729 Ry
     cavitation energy         =       0.02002534 Ry
     PV energy                 =      -0.09071006 Ry
     correction to one-el term =     224.19489509 Ry

     iteration #  5     ecut=    50.00 Ry     beta= 0.70
     Davidson diagonalization with overlap
     ethr =  8.51E-05,  avg # of iterations =  1.0

     total cpu time spent up to now is     5438.4 secs

     total energy              =   -3437.42945904 Ry
     estimated scf accuracy    <       0.19900269 Ry
     electrostatic embedding   =      -0.00419458 Ry
     cavitation energy         =       0.02022613 Ry
     PV energy                 =      -0.09006275 Ry
     correction to one-el term =     224.19484542 Ry

     iteration #  6     ecut=    50.00 Ry     beta= 0.70
     Davidson diagonalization with overlap
     ethr =  5.41E-05,  avg # of iterations =  3.0

     total cpu time spent up to now is     6033.1 secs

     total energy              =   -3437.42099733 Ry
     estimated scf accuracy    <       0.22288931 Ry
     electrostatic embedding   =      -0.00419779 Ry
     cavitation energy         =       0.02069578 Ry
     PV energy                 =      -0.08860009 Ry
     correction to one-el term =     224.19422712 Ry

     iteration #  7     ecut=    50.00 Ry     beta= 0.70
     Davidson diagonalization with overlap
     ethr =  5.41E-05,  avg # of iterations =  5.0

     total cpu time spent up to now is     6807.3 secs

     total energy              =   -3437.40868581 Ry
     estimated scf accuracy    <       0.12224603 Ry
     electrostatic embedding   =      -0.00389341 Ry
     cavitation energy         =       0.02130455 Ry
     PV energy                 =      -0.08657981 Ry
     correction to one-el term =     224.19263523 Ry

     iteration #  8     ecut=    50.00 Ry     beta= 0.70
     Davidson diagonalization with overlap
     ethr =  3.32E-05,  avg # of iterations =  9.0

     negative rho (up, down):  4.225E-04 0.000E+00

     add environment contribution to local potential
     Polarization accuracy = 4.6E-12, # of iterations =  47

     total cpu time spent up to now is     7456.5 secs

     total energy              =   -3437.40570539 Ry
     estimated scf accuracy    <       0.04502098 Ry
     electrostatic embedding   =      -0.00313355 Ry
     cavitation energy         =       0.02187932 Ry
     PV energy                 =      -0.08437282 Ry
     correction to one-el term =     224.18960175 Ry

     iteration #  9     ecut=    50.00 Ry     beta= 0.70
     Davidson diagonalization with overlap
     ethr =  1.22E-05,  avg # of iterations =  7.0

     negative rho (up, down):  3.833E-03 0.000E+00

     add environment contribution to local potential
     Polarization accuracy = 6.8E-12, # of iterations =  49

     total cpu time spent up to now is     8074.1 secs

     total energy              =   -3437.43787151 Ry
     estimated scf accuracy    <       0.02518911 Ry
     electrostatic embedding   =      -0.04355705 Ry
     cavitation energy         =       0.02178056 Ry
     PV energy                 =      -0.08404318 Ry
     correction to one-el term =     183.24641086 Ry

     iteration # 10     ecut=    50.00 Ry     beta= 0.70
     Davidson diagonalization with overlap
     ethr =  6.84E-06,  avg # of iterations =  7.0

     negative rho (up, down):  1.399E-02 0.000E+00

     add environment contribution to local potential
     Polarization accuracy = 2.9E-12, # of iterations =  48

     total cpu time spent up to now is     8701.9 secs

     total energy              =   -3437.44364670 Ry
     estimated scf accuracy    <       0.01284442 Ry
     electrostatic embedding   =      -0.04420347 Ry
     cavitation energy         =       0.02152472 Ry
     PV energy                 =      -0.08396530 Ry
     correction to one-el term =     183.64225388 Ry

     iteration # 11     ecut=    50.00 Ry     beta= 0.70
     Davidson diagonalization with overlap
     ethr =  3.49E-06,  avg # of iterations =  8.0

     negative rho (up, down):  1.198E-02 0.000E+00

     add environment contribution to local potential
     Polarization accuracy = 5.1E-12, # of iterations =  43

     total cpu time spent up to now is     9414.7 secs

     total energy              =   -3437.44140683 Ry
     estimated scf accuracy    <       0.00513216 Ry
     electrostatic embedding   =      -0.04748454 Ry
     cavitation energy         =       0.02123797 Ry
     PV energy                 =      -0.08390528 Ry
     correction to one-el term =     184.19251106 Ry

     iteration # 12     ecut=    50.00 Ry     beta= 0.70
     Davidson diagonalization with overlap
     ethr =  1.39E-06,  avg # of iterations =  8.0

     negative rho (up, down):  3.128E-03 0.000E+00

     add environment contribution to local potential
     Polarization accuracy = 9.9E-12, # of iterations =  43

     total cpu time spent up to now is     9969.1 secs

     total energy              =   -3437.44244069 Ry
     estimated scf accuracy    <       0.00289654 Ry
     electrostatic embedding   =      -0.04689938 Ry
     cavitation energy         =       0.02086866 Ry
     PV energy                 =      -0.08442620 Ry
     correction to one-el term =     185.78453476 Ry

     iteration # 13     ecut=    50.00 Ry     beta= 0.70
     Davidson diagonalization with overlap
     ethr =  7.87E-07,  avg # of iterations =  5.0

     negative rho (up, down):  4.006E-04 0.000E+00

     add environment contribution to local potential
     Polarization accuracy = 5.5E-12, # of iterations =  42

     total cpu time spent up to now is    10609.8 secs

     total energy              =   -3437.44287774 Ry
     estimated scf accuracy    <       0.00115290 Ry
     electrostatic embedding   =      -0.04466135 Ry
     cavitation energy         =       0.02095992 Ry
     PV energy                 =      -0.08443267 Ry
     correction to one-el term =     186.03744322 Ry

     iteration # 14     ecut=    50.00 Ry     beta= 0.70
     Davidson diagonalization with overlap
     ethr =  3.13E-07,  avg # of iterations =  7.0

     negative rho (up, down):  4.065E-06 0.000E+00

     add environment contribution to local potential
     Polarization accuracy = 4.9E-12, # of iterations =  42

     total cpu time spent up to now is    11335.5 secs

     total energy              =   -3437.44326690 Ry
     estimated scf accuracy    <       0.00065233 Ry
     electrostatic embedding   =      -0.04372540 Ry
     cavitation energy         =       0.02085526 Ry
     PV energy                 =      -0.08466951 Ry
     correction to one-el term =     186.78884180 Ry

     iteration # 15     ecut=    50.00 Ry     beta= 0.70
     Davidson diagonalization with overlap
     ethr =  1.77E-07,  avg # of iterations =  7.0

     negative rho (up, down):  3.219E-05 0.000E+00

     add environment contribution to local potential
     Polarization accuracy = 8.4E-12, # of iterations =  42

     total cpu time spent up to now is    12059.1 secs

     total energy              =   -3437.44346465 Ry
     estimated scf accuracy    <       0.00018418 Ry
     electrostatic embedding   =      -0.04262820 Ry
     cavitation energy         =       0.02085178 Ry
     PV energy                 =      -0.08474420 Ry
     correction to one-el term =     187.59933039 Ry

     iteration # 16     ecut=    50.00 Ry     beta= 0.70
     Davidson diagonalization with overlap
     ethr =  5.00E-08,  avg # of iterations =  7.0

     negative rho (up, down):  4.873E-04 0.000E+00

     add environment contribution to local potential
     Polarization accuracy = 7.2E-12, # of iterations =  41

     total cpu time spent up to now is    12686.1 secs

     total energy              =   -3437.44349768 Ry
     estimated scf accuracy    <       0.00008396 Ry
     electrostatic embedding   =      -0.04192573 Ry
     cavitation energy         =       0.02085537 Ry
     PV energy                 =      -0.08477761 Ry
     correction to one-el term =     187.99548237 Ry

     iteration # 17     ecut=    50.00 Ry     beta= 0.70
     Davidson diagonalization with overlap
     ethr =  2.28E-08,  avg # of iterations =  2.0

     negative rho (up, down):  1.540E-04 0.000E+00

     add environment contribution to local potential
     Polarization accuracy = 4.2E-12, # of iterations =  42

     total cpu time spent up to now is    13315.3 secs

     total energy              =   -3437.44350963 Ry
     estimated scf accuracy    <       0.00000444 Ry
     electrostatic embedding   =      -0.04138488 Ry
     cavitation energy         =       0.02086654 Ry
     PV energy                 =      -0.08479220 Ry
     correction to one-el term =     188.18483603 Ry

     iteration # 18     ecut=    50.00 Ry     beta= 0.70
     Davidson diagonalization with overlap
     ethr =  1.21E-09,  avg # of iterations =  2.0

     negative rho (up, down):  1.263E-04 0.000E+00

     add environment contribution to local potential
     Polarization accuracy = 3.9E-12, # of iterations =  42

     total cpu time spent up to now is    13836.7 secs

     total energy              =   -3437.44351120 Ry
     estimated scf accuracy    <       0.00000122 Ry
     electrostatic embedding   =      -0.04143107 Ry
     cavitation energy         =       0.02086873 Ry
     PV energy                 =      -0.08477903 Ry
     correction to one-el term =     188.19651151 Ry

     iteration # 19     ecut=    50.00 Ry     beta= 0.70
     Davidson diagonalization with overlap
     ethr =  3.32E-10,  avg # of iterations =  3.0

     negative rho (up, down):  1.509E-04 0.000E+00

     add environment contribution to local potential
     Polarization accuracy = 3.9E-12, # of iterations =  42

     total cpu time spent up to now is    14008.8 secs

     total energy              =   -3437.44351189 Ry
     estimated scf accuracy    <       0.00000067 Ry
     electrostatic embedding   =      -0.04133258 Ry
     cavitation energy         =       0.02086668 Ry
     PV energy                 =      -0.08478438 Ry
     correction to one-el term =     188.22854802 Ry

     iteration # 20     ecut=    50.00 Ry     beta= 0.70
     Davidson diagonalization with overlap
     ethr =  1.82E-10,  avg # of iterations =  2.0

     negative rho (up, down):  1.386E-04 0.000E+00

     add environment contribution to local potential
     Polarization accuracy = 3.9E-12, # of iterations =  42

     total cpu time spent up to now is    14161.6 secs

     total energy              =   -3437.44351214 Ry
     estimated scf accuracy    <       0.00000029 Ry
     electrostatic embedding   =      -0.04131085 Ry
     cavitation energy         =       0.02086566 Ry
     PV energy                 =      -0.08478606 Ry
     correction to one-el term =     188.23710098 Ry

     iteration # 21     ecut=    50.00 Ry     beta= 0.70
     Davidson diagonalization with overlap
     ethr =  7.82E-11,  avg # of iterations =  2.0

     negative rho (up, down):  1.369E-04 0.000E+00

     add environment contribution to local potential
     Polarization accuracy = 4.0E-12, # of iterations =  42

     total cpu time spent up to now is    14302.8 secs

     total energy              =   -3437.44351246 Ry
     estimated scf accuracy    <       0.00000022 Ry
     electrostatic embedding   =      -0.04129356 Ry
     cavitation energy         =       0.02086495 Ry
     PV energy                 =      -0.08478659 Ry
     correction to one-el term =     188.24175867 Ry

     iteration # 22     ecut=    50.00 Ry     beta= 0.70
     Davidson diagonalization with overlap
     ethr =  5.94E-11,  avg # of iterations =  2.0

     negative rho (up, down):  1.128E-04 0.000E+00

     add environment contribution to local potential
     Polarization accuracy = 4.4E-12, # of iterations =  42

     total cpu time spent up to now is    14441.6 secs

     total energy              =   -3437.44351281 Ry
     estimated scf accuracy    <       0.00000018 Ry
     electrostatic embedding   =      -0.04127694 Ry
     cavitation energy         =       0.02086422 Ry
     PV energy                 =      -0.08478746 Ry
     correction to one-el term =     188.24731520 Ry

     iteration # 23     ecut=    50.00 Ry     beta= 0.70
     Davidson diagonalization with overlap
     ethr =  5.01E-11,  avg # of iterations =  1.0

     negative rho (up, down):  1.016E-04 0.000E+00

     add environment contribution to local potential
     Polarization accuracy = 4.6E-12, # of iterations =  42

     total cpu time spent up to now is    14606.5 secs

     total energy              =   -3437.44351334 Ry
     estimated scf accuracy    <       0.00000018 Ry
     electrostatic embedding   =      -0.04127745 Ry
     cavitation energy         =       0.02086381 Ry
     PV energy                 =      -0.08478685 Ry
     correction to one-el term =     188.24688971 Ry

     iteration # 24     ecut=    50.00 Ry     beta= 0.70
     Davidson diagonalization with overlap
     ethr =  5.01E-11,  avg # of iterations =  1.0

     negative rho (up, down):  9.358E-05 0.000E+00

     add environment contribution to local potential
     Polarization accuracy = 4.6E-12, # of iterations =  42

     total cpu time spent up to now is    15144.7 secs

     total energy              =   -3437.44351400 Ry
     estimated scf accuracy    <       0.00000017 Ry
     electrostatic embedding   =      -0.04128414 Ry
     cavitation energy         =       0.02086353 Ry
     PV energy                 =      -0.08478642 Ry
     correction to one-el term =     188.24408189 Ry

     iteration # 25     ecut=    50.00 Ry     beta= 0.70
     Davidson diagonalization with overlap
     ethr =  4.48E-11,  avg # of iterations =  1.0

     negative rho (up, down):  1.015E-04 0.000E+00

     add environment contribution to local potential
     Polarization accuracy = 4.6E-12, # of iterations =  42

     total cpu time spent up to now is    15287.7 secs

     total energy              =   -3437.44351504 Ry
     estimated scf accuracy    <       0.00000016 Ry
     electrostatic embedding   =      -0.04129050 Ry
     cavitation energy         =       0.02086354 Ry
     PV energy                 =      -0.08478568 Ry
     correction to one-el term =     188.24245448 Ry

     iteration # 26     ecut=    50.00 Ry     beta= 0.70
     Davidson diagonalization with overlap
     ethr =  4.34E-11,  avg # of iterations =  1.0

     negative rho (up, down):  1.216E-04 0.000E+00

     add environment contribution to local potential
     Polarization accuracy = 4.5E-12, # of iterations =  42

     total cpu time spent up to now is    15428.7 secs

     total energy              =   -3437.44351544 Ry
     estimated scf accuracy    <       0.00000015 Ry
     electrostatic embedding   =      -0.04128661 Ry
     cavitation energy         =       0.02086353 Ry
     PV energy                 =      -0.08478605 Ry
     correction to one-el term =     188.24437329 Ry

     iteration # 27     ecut=    50.00 Ry     beta= 0.70
     Davidson diagonalization with overlap
     ethr =  4.20E-11,  avg # of iterations =  2.0

     negative rho (up, down):  1.315E-04 0.000E+00

     add environment contribution to local potential
     Polarization accuracy = 4.4E-12, # of iterations =  42

     total cpu time spent up to now is    15569.9 secs

     total energy              =   -3437.44352071 Ry
     estimated scf accuracy    <       0.00000016 Ry
     electrostatic embedding   =      -0.04129656 Ry
     cavitation energy         =       0.02086389 Ry
     PV energy                 =      -0.08478572 Ry
     correction to one-el term =     188.24395669 Ry

     iteration # 28     ecut=    50.00 Ry     beta= 0.70
     Davidson diagonalization with overlap
     ethr =  4.20E-11,  avg # of iterations =  2.0

     negative rho (up, down):  1.259E-04 0.000E+00

     add environment contribution to local potential
     Polarization accuracy = 2.8E-12, # of iterations =  42

     total cpu time spent up to now is    15724.2 secs

     total energy              =   -3437.44352525 Ry
     estimated scf accuracy    <       0.00000013 Ry
     electrostatic embedding   =      -0.04128630 Ry
     cavitation energy         =       0.02086359 Ry
     PV energy                 =      -0.08478656 Ry
     correction to one-el term =     188.24823734 Ry

     iteration # 29     ecut=    50.00 Ry     beta= 0.70
     Davidson diagonalization with overlap
     ethr =  3.52E-11,  avg # of iterations =  3.0

     negative rho (up, down):  1.186E-04 0.000E+00

     add environment contribution to local potential
     Polarization accuracy = 4.2E-12, # of iterations =  43

     total cpu time spent up to now is    15883.4 secs

     total energy              =   -3437.44353428 Ry
     estimated scf accuracy    <       0.00000013 Ry
     electrostatic embedding   =      -0.04129536 Ry
     cavitation energy         =       0.02086351 Ry
     PV energy                 =      -0.08478623 Ry
     correction to one-el term =     188.24485221 Ry

     iteration # 30     ecut=    50.00 Ry     beta= 0.70
     Davidson diagonalization with overlap
     ethr =  3.52E-11,  avg # of iterations =  2.0

     negative rho (up, down):  1.176E-04 0.000E+00

     add environment contribution to local potential
     Polarization accuracy = 4.5E-12, # of iterations =  42

     total cpu time spent up to now is    16022.9 secs

     total energy              =   -3437.44354210 Ry
     estimated scf accuracy    <       0.00000010 Ry
     electrostatic embedding   =      -0.04128753 Ry
     cavitation energy         =       0.02086321 Ry
     PV energy                 =      -0.08478650 Ry
     correction to one-el term =     188.24630716 Ry

     iteration # 31     ecut=    50.00 Ry     beta= 0.70
     Davidson diagonalization with overlap
     ethr =  2.66E-11,  avg # of iterations =  1.0

     negative rho (up, down):  1.144E-04 0.000E+00

     add environment contribution to local potential
     Polarization accuracy = 4.5E-12, # of iterations =  42

     total cpu time spent up to now is    16166.2 secs

     total energy              =   -3437.44354428 Ry
     estimated scf accuracy    <       0.00000010 Ry
     electrostatic embedding   =      -0.04128735 Ry
     cavitation energy         =       0.02086347 Ry
     PV energy                 =      -0.08478627 Ry
     correction to one-el term =     188.24559123 Ry

     iteration # 32     ecut=    50.00 Ry     beta= 0.70
     Davidson diagonalization with overlap
     ethr =  2.66E-11,  avg # of iterations =  1.0

     negative rho (up, down):  1.137E-04 0.000E+00

     add environment contribution to local potential
     Polarization accuracy = 4.5E-12, # of iterations =  42

     total cpu time spent up to now is    16308.5 secs

     total energy              =   -3437.44354532 Ry
     estimated scf accuracy    <       0.00000010 Ry
     electrostatic embedding   =      -0.04128683 Ry
     cavitation energy         =       0.02086356 Ry
     PV energy                 =      -0.08478615 Ry
     correction to one-el term =     188.24530681 Ry

     iteration # 33     ecut=    50.00 Ry     beta= 0.70
     Davidson diagonalization with overlap
     ethr =  2.63E-11,  avg # of iterations =  1.0

     negative rho (up, down):  1.139E-04 0.000E+00

     add environment contribution to local potential
     Polarization accuracy = 4.5E-12, # of iterations =  42

     total cpu time spent up to now is    16450.2 secs

     total energy              =   -3437.44354576 Ry
     estimated scf accuracy    <       0.00000010 Ry
     electrostatic embedding   =      -0.04128524 Ry
     cavitation energy         =       0.02086367 Ry
     PV energy                 =      -0.08478623 Ry
     correction to one-el term =     188.24529083 Ry

     iteration # 34     ecut=    50.00 Ry     beta= 0.70
     Davidson diagonalization with overlap
     ethr =  2.59E-11,  avg # of iterations =  1.0

     negative rho (up, down):  1.136E-04 0.000E+00

     add environment contribution to local potential
     Polarization accuracy = 4.5E-12, # of iterations =  42

     total cpu time spent up to now is    16596.1 secs

     total energy              =   -3437.44354584 Ry
     estimated scf accuracy    <       0.00000010 Ry
     electrostatic embedding   =      -0.04128562 Ry
     cavitation energy         =       0.02086370 Ry
     PV energy                 =      -0.08478625 Ry
     correction to one-el term =     188.24521850 Ry

     iteration # 35     ecut=    50.00 Ry     beta= 0.70
     Davidson diagonalization with overlap
     ethr =  2.58E-11,  avg # of iterations =  1.0

     negative rho (up, down):  1.129E-04 0.000E+00

     add environment contribution to local potential
     Polarization accuracy = 4.5E-12, # of iterations =  42

     total cpu time spent up to now is    16749.7 secs

     total energy              =   -3437.44354590 Ry
     estimated scf accuracy    <       0.00000010 Ry
     electrostatic embedding   =      -0.04128628 Ry
     cavitation energy         =       0.02086374 Ry
     PV energy                 =      -0.08478628 Ry
     correction to one-el term =     188.24496897 Ry

     iteration # 36     ecut=    50.00 Ry     beta= 0.70
     Davidson diagonalization with overlap
     ethr =  2.58E-11,  avg # of iterations =  1.0

     negative rho (up, down):  1.125E-04 0.000E+00

     add environment contribution to local potential
     Polarization accuracy = 4.5E-12, # of iterations =  42

     total cpu time spent up to now is    16877.7 secs

     total energy              =   -3437.44354598 Ry
     estimated scf accuracy    <       0.00000010 Ry
     electrostatic embedding   =      -0.04128645 Ry
     cavitation energy         =       0.02086375 Ry
     PV energy                 =      -0.08478628 Ry
     correction to one-el term =     188.24482372 Ry

     iteration # 37     ecut=    50.00 Ry     beta= 0.70
     Davidson diagonalization with overlap
     ethr =  2.58E-11,  avg # of iterations =  1.0

     negative rho (up, down):  1.123E-04 0.000E+00

     add environment contribution to local potential
     Polarization accuracy = 4.5E-12, # of iterations =  42

     total cpu time spent up to now is    17024.2 secs

     total energy              =   -3437.44354596 Ry
     estimated scf accuracy    <       0.00000010 Ry
     electrostatic embedding   =      -0.04128662 Ry
     cavitation energy         =       0.02086375 Ry
     PV energy                 =      -0.08478629 Ry
     correction to one-el term =     188.24474050 Ry

     iteration # 38     ecut=    50.00 Ry     beta= 0.70
     Davidson diagonalization with overlap
     ethr =  2.58E-11,  avg # of iterations =  1.0

     negative rho (up, down):  1.120E-04 0.000E+00

     add environment contribution to local potential
     Polarization accuracy = 4.5E-12, # of iterations =  42

     total cpu time spent up to now is    17139.3 secs

     total energy              =   -3437.44354595 Ry
     estimated scf accuracy    <       0.00000010 Ry
     electrostatic embedding   =      -0.04128662 Ry
     cavitation energy         =       0.02086375 Ry
     PV energy                 =      -0.08478629 Ry
     correction to one-el term =     188.24471352 Ry

     iteration # 39     ecut=    50.00 Ry     beta= 0.70
     Davidson diagonalization with overlap
     ethr =  2.58E-11,  avg # of iterations =  1.0

     negative rho (up, down):  1.120E-04 0.000E+00

     add environment contribution to local potential
     Polarization accuracy = 4.5E-12, # of iterations =  42

     total cpu time spent up to now is    17276.5 secs

     total energy              =   -3437.44354593 Ry
     estimated scf accuracy    <       0.00000010 Ry
     electrostatic embedding   =      -0.04128660 Ry
     cavitation energy         =       0.02086374 Ry
     PV energy                 =      -0.08478629 Ry
     correction to one-el term =     188.24468945 Ry

     iteration # 40     ecut=    50.00 Ry     beta= 0.70
     Davidson diagonalization with overlap
     ethr =  2.58E-11,  avg # of iterations =  1.0

     negative rho (up, down):  1.121E-04 0.000E+00

     add environment contribution to local potential
     Polarization accuracy = 4.5E-12, # of iterations =  42

     total cpu time spent up to now is    17426.9 secs

     total energy              =   -3437.44354592 Ry
     estimated scf accuracy    <       0.00000010 Ry
     electrostatic embedding   =      -0.04128655 Ry
     cavitation energy         =       0.02086374 Ry
     PV energy                 =      -0.08478629 Ry
     correction to one-el term =     188.24470501 Ry

     iteration # 41     ecut=    50.00 Ry     beta= 0.70
     Davidson diagonalization with overlap
     ethr =  2.58E-11,  avg # of iterations =  1.0

     negative rho (up, down):  1.121E-04 0.000E+00

     add environment contribution to local potential
     Polarization accuracy = 4.5E-12, # of iterations =  42

     total cpu time spent up to now is    17549.1 secs

     total energy              =   -3437.44354589 Ry
     estimated scf accuracy    <       0.00000010 Ry
     electrostatic embedding   =      -0.04128655 Ry
     cavitation energy         =       0.02086374 Ry
     PV energy                 =      -0.08478629 Ry
     correction to one-el term =     188.24471016 Ry

     iteration # 42     ecut=    50.00 Ry     beta= 0.70
     Davidson diagonalization with overlap
     ethr =  2.58E-11,  avg # of iterations =  1.0

     negative rho (up, down):  1.121E-04 0.000E+00

     add environment contribution to local potential
     Polarization accuracy = 4.5E-12, # of iterations =  42

     total cpu time spent up to now is    17663.4 secs

     total energy              =   -3437.44354589 Ry
     estimated scf accuracy    <       0.00000010 Ry
     electrostatic embedding   =      -0.04128657 Ry
     cavitation energy         =       0.02086374 Ry
     PV energy                 =      -0.08478629 Ry
     correction to one-el term =     188.24470749 Ry

     iteration # 43     ecut=    50.00 Ry     beta= 0.70
     Davidson diagonalization with overlap
     ethr =  2.58E-11,  avg # of iterations =  1.0

     negative rho (up, down):  1.121E-04 0.000E+00

     add environment contribution to local potential
     Polarization accuracy = 4.5E-12, # of iterations =  42

     total cpu time spent up to now is    17787.0 secs

     total energy              =   -3437.44354587 Ry
     estimated scf accuracy    <       0.00000010 Ry
     electrostatic embedding   =      -0.04128658 Ry
     cavitation energy         =       0.02086374 Ry
     PV energy                 =      -0.08478629 Ry
     correction to one-el term =     188.24471250 Ry

     iteration # 44     ecut=    50.00 Ry     beta= 0.70
     Davidson diagonalization with overlap
     ethr =  2.58E-11,  avg # of iterations =  1.0

     negative rho (up, down):  1.121E-04 0.000E+00

     add environment contribution to local potential
     Polarization accuracy = 4.5E-12, # of iterations =  42

     total cpu time spent up to now is    17919.6 secs

     total energy              =   -3437.44354586 Ry
     estimated scf accuracy    <       0.00000010 Ry
     electrostatic embedding   =      -0.04128659 Ry
     cavitation energy         =       0.02086374 Ry
     PV energy                 =      -0.08478629 Ry
     correction to one-el term =     188.24471013 Ry

     iteration # 45     ecut=    50.00 Ry     beta= 0.70
     Davidson diagonalization with overlap
     ethr =  2.58E-11,  avg # of iterations =  1.0

     negative rho (up, down):  1.121E-04 0.000E+00

     add environment contribution to local potential
     Polarization accuracy = 4.5E-12, # of iterations =  42

     total cpu time spent up to now is    18055.3 secs

     total energy              =   -3437.44354586 Ry
     estimated scf accuracy    <       0.00000010 Ry
     electrostatic embedding   =      -0.04128659 Ry
     cavitation energy         =       0.02086374 Ry
     PV energy                 =      -0.08478629 Ry
     correction to one-el term =     188.24470995 Ry

     iteration # 46     ecut=    50.00 Ry     beta= 0.70
     Davidson diagonalization with overlap
     ethr =  2.58E-11,  avg # of iterations =  1.0

     negative rho (up, down):  1.121E-04 0.000E+00

     add environment contribution to local potential
     Polarization accuracy = 4.5E-12, # of iterations =  42

     total cpu time spent up to now is    18170.7 secs

     total energy              =   -3437.44354586 Ry
     estimated scf accuracy    <       0.00000010 Ry
     electrostatic embedding   =      -0.04128658 Ry
     cavitation energy         =       0.02086374 Ry
     PV energy                 =      -0.08478629 Ry
     correction to one-el term =     188.24471130 Ry

     iteration # 47     ecut=    50.00 Ry     beta= 0.70
     Davidson diagonalization with overlap
     ethr =  2.58E-11,  avg # of iterations =  1.0

     negative rho (up, down):  1.121E-04 0.000E+00

     add environment contribution to local potential
     Polarization accuracy = 4.5E-12, # of iterations =  42

     total cpu time spent up to now is    18299.6 secs

     total energy              =   -3437.44354586 Ry
     estimated scf accuracy    <       0.00000010 Ry
     electrostatic embedding   =      -0.04128658 Ry
     cavitation energy         =       0.02086374 Ry
     PV energy                 =      -0.08478629 Ry
     correction to one-el term =     188.24471062 Ry

     iteration # 48     ecut=    50.00 Ry     beta= 0.70
     Davidson diagonalization with overlap
     ethr =  2.58E-11,  avg # of iterations =  1.0

     negative rho (up, down):  1.121E-04 0.000E+00

     add environment contribution to local potential
     Polarization accuracy = 4.5E-12, # of iterations =  42

     total cpu time spent up to now is    18424.7 secs

     total energy              =   -3437.44354586 Ry
     estimated scf accuracy    <       0.00000010 Ry
     electrostatic embedding   =      -0.04128658 Ry
     cavitation energy         =       0.02086374 Ry
     PV energy                 =      -0.08478629 Ry
     correction to one-el term =     188.24471060 Ry

     iteration # 49     ecut=    50.00 Ry     beta= 0.70
     Davidson diagonalization with overlap
     ethr =  2.58E-11,  avg # of iterations =  1.0

     negative rho (up, down):  1.121E-04 0.000E+00

     add environment contribution to local potential
     Polarization accuracy = 4.5E-12, # of iterations =  42

     total cpu time spent up to now is    18555.0 secs

     total energy              =   -3437.44354586 Ry
     estimated scf accuracy    <       0.00000010 Ry
     electrostatic embedding   =      -0.04128658 Ry
     cavitation energy         =       0.02086374 Ry
     PV energy                 =      -0.08478629 Ry
     correction to one-el term =     188.24470986 Ry

     iteration # 50     ecut=    50.00 Ry     beta= 0.70
     Davidson diagonalization with overlap
     ethr =  2.58E-11,  avg # of iterations =  1.0

     negative rho (up, down):  1.121E-04 0.000E+00

     add environment contribution to local potential
     Polarization accuracy = 4.5E-12, # of iterations =  42

     total cpu time spent up to now is    18683.7 secs

     total energy              =   -3437.44354586 Ry
     estimated scf accuracy    <       0.00000010 Ry
     electrostatic embedding   =      -0.04128658 Ry
     cavitation energy         =       0.02086374 Ry
     PV energy                 =      -0.08478629 Ry
     correction to one-el term =     188.24470944 Ry

     iteration # 51     ecut=    50.00 Ry     beta= 0.70
     Davidson diagonalization with overlap
     ethr =  2.58E-11,  avg # of iterations =  1.0

     negative rho (up, down):  1.121E-04 0.000E+00

     add environment contribution to local potential
     Polarization accuracy = 4.5E-12, # of iterations =  42

     total cpu time spent up to now is    18813.6 secs

     total energy              =   -3437.44354586 Ry
     estimated scf accuracy    <       0.00000010 Ry
     electrostatic embedding   =      -0.04128658 Ry
     cavitation energy         =       0.02086374 Ry
     PV energy                 =      -0.08478629 Ry
     correction to one-el term =     188.24470907 Ry

     iteration # 52     ecut=    50.00 Ry     beta= 0.70
     Davidson diagonalization with overlap
     ethr =  2.58E-11,  avg # of iterations =  1.0

     negative rho (up, down):  1.121E-04 0.000E+00

     add environment contribution to local potential
     Polarization accuracy = 4.9E-12, # of iterations =  44

     total cpu time spent up to now is    18949.7 secs

     total energy              =   -3437.44354587 Ry
     estimated scf accuracy    <       0.00000010 Ry
     electrostatic embedding   =      -0.04128658 Ry
     cavitation energy         =       0.02086374 Ry
     PV energy                 =      -0.08478629 Ry
     correction to one-el term =     188.24470906 Ry

     iteration # 53     ecut=    50.00 Ry     beta= 0.70
     Davidson diagonalization with overlap
     ethr =  2.58E-11,  avg # of iterations =  1.0

     negative rho (up, down):  1.121E-04 0.000E+00

     add environment contribution to local potential
     Polarization accuracy = 4.5E-12, # of iterations =  42

     total cpu time spent up to now is    19095.5 secs

     total energy              =   -3437.44354587 Ry
     estimated scf accuracy    <       0.00000010 Ry
     electrostatic embedding   =      -0.04128658 Ry
     cavitation energy         =       0.02086374 Ry
     PV energy                 =      -0.08478629 Ry
     correction to one-el term =     188.24470884 Ry

     iteration # 54     ecut=    50.00 Ry     beta= 0.70
     Davidson diagonalization with overlap
     ethr =  2.58E-11,  avg # of iterations =  1.0

     negative rho (up, down):  1.121E-04 0.000E+00

     add environment contribution to local potential
     Polarization accuracy = 4.5E-12, # of iterations =  42

     total cpu time spent up to now is    19245.7 secs

     total energy              =   -3437.44354587 Ry
     estimated scf accuracy    <       0.00000010 Ry
     electrostatic embedding   =      -0.04128658 Ry
     cavitation energy         =       0.02086374 Ry
     PV energy                 =      -0.08478629 Ry
     correction to one-el term =     188.24470888 Ry

     iteration # 55     ecut=    50.00 Ry     beta= 0.70
     Davidson diagonalization with overlap
     ethr =  2.58E-11,  avg # of iterations =  1.0

     negative rho (up, down):  1.121E-04 0.000E+00

     add environment contribution to local potential
     Polarization accuracy = 4.5E-12, # of iterations =  42

     total cpu time spent up to now is    19371.9 secs

     total energy              =   -3437.44354587 Ry
     estimated scf accuracy    <       0.00000010 Ry
     electrostatic embedding   =      -0.04128658 Ry
     cavitation energy         =       0.02086374 Ry
     PV energy                 =      -0.08478629 Ry
     correction to one-el term =     188.24470894 Ry

     iteration # 56     ecut=    50.00 Ry     beta= 0.70
     Davidson diagonalization with overlap
     ethr =  2.58E-11,  avg # of iterations =  1.0

     negative rho (up, down):  1.121E-04 0.000E+00

     add environment contribution to local potential
     Polarization accuracy = 4.5E-12, # of iterations =  42

     total cpu time spent up to now is    19515.3 secs

     total energy              =   -3437.44354588 Ry
     estimated scf accuracy    <       0.00000010 Ry
     electrostatic embedding   =      -0.04128658 Ry
     cavitation energy         =       0.02086374 Ry
     PV energy                 =      -0.08478629 Ry
     correction to one-el term =     188.24470894 Ry

     iteration # 57     ecut=    50.00 Ry     beta= 0.70
     Davidson diagonalization with overlap
     ethr =  2.58E-11,  avg # of iterations =  1.0

     negative rho (up, down):  1.121E-04 0.000E+00

     add environment contribution to local potential
     Polarization accuracy = 4.5E-12, # of iterations =  42

     total cpu time spent up to now is    19650.9 secs

     total energy              =   -3437.44354588 Ry
     estimated scf accuracy    <       0.00000010 Ry
     electrostatic embedding   =      -0.04128658 Ry
     cavitation energy         =       0.02086374 Ry
     PV energy                 =      -0.08478629 Ry
     correction to one-el term =     188.24470897 Ry

     iteration # 58     ecut=    50.00 Ry     beta= 0.70
     Davidson diagonalization with overlap
     ethr =  2.58E-11,  avg # of iterations =  1.0

     negative rho (up, down):  1.121E-04 0.000E+00

     add environment contribution to local potential
     Polarization accuracy = 4.5E-12, # of iterations =  42

     total cpu time spent up to now is    19775.2 secs

     total energy              =   -3437.44354588 Ry
     estimated scf accuracy    <       0.00000010 Ry
     electrostatic embedding   =      -0.04128658 Ry
     cavitation energy         =       0.02086374 Ry
     PV energy                 =      -0.08478629 Ry
     correction to one-el term =     188.24470898 Ry

     iteration # 59     ecut=    50.00 Ry     beta= 0.70
     Davidson diagonalization with overlap
     ethr =  2.58E-11,  avg # of iterations =  1.0

     negative rho (up, down):  1.121E-04 0.000E+00

     add environment contribution to local potential
     Polarization accuracy = 8.0E-12, # of iterations =  41

     total cpu time spent up to now is    19917.3 secs

     total energy              =   -3437.44354588 Ry
     estimated scf accuracy    <       0.00000010 Ry
     electrostatic embedding   =      -0.04128658 Ry
     cavitation energy         =       0.02086374 Ry
     PV energy                 =      -0.08478629 Ry
     correction to one-el term =     188.24470903 Ry

     iteration # 60     ecut=    50.00 Ry     beta= 0.70
     Davidson diagonalization with overlap
     ethr =  2.58E-11,  avg # of iterations =  1.0

     negative rho (up, down):  1.121E-04 0.000E+00

     add environment contribution to local potential
     Polarization accuracy = 4.5E-12, # of iterations =  42

     total cpu time spent up to now is    20052.6 secs

     total energy              =   -3437.44354588 Ry
     estimated scf accuracy    <       0.00000010 Ry
     electrostatic embedding   =      -0.04128658 Ry
     cavitation energy         =       0.02086374 Ry
     PV energy                 =      -0.08478629 Ry
     correction to one-el term =     188.24471124 Ry

     iteration # 61     ecut=    50.00 Ry     beta= 0.70
     Davidson diagonalization with overlap
     ethr =  2.58E-11,  avg # of iterations =  1.0

     negative rho (up, down):  1.121E-04 0.000E+00

     add environment contribution to local potential
     Polarization accuracy = 4.5E-12, # of iterations =  42

     total cpu time spent up to now is    20200.5 secs

     total energy              =   -3437.44354588 Ry
     estimated scf accuracy    <       0.00000010 Ry
     electrostatic embedding   =      -0.04128658 Ry
     cavitation energy         =       0.02086374 Ry
     PV energy                 =      -0.08478629 Ry
     correction to one-el term =     188.24470913 Ry

     iteration # 62     ecut=    50.00 Ry     beta= 0.70
     Davidson diagonalization with overlap
     ethr =  2.58E-11,  avg # of iterations =  1.0

     negative rho (up, down):  1.121E-04 0.000E+00

     add environment contribution to local potential
     Polarization accuracy = 4.5E-12, # of iterations =  42

     total cpu time spent up to now is    20333.0 secs

     total energy              =   -3437.44354588 Ry
     estimated scf accuracy    <       0.00000010 Ry
     electrostatic embedding   =      -0.04128658 Ry
     cavitation energy         =       0.02086374 Ry
     PV energy                 =      -0.08478629 Ry
     correction to one-el term =     188.24470911 Ry

     iteration # 63     ecut=    50.00 Ry     beta= 0.70
     Davidson diagonalization with overlap
     ethr =  2.58E-11,  avg # of iterations =  1.0

     negative rho (up, down):  1.121E-04 0.000E+00

     add environment contribution to local potential
     Polarization accuracy = 5.7E-12, # of iterations =  41

     total cpu time spent up to now is    20486.7 secs

     total energy              =   -3437.44354588 Ry
     estimated scf accuracy    <       0.00000010 Ry
     electrostatic embedding   =      -0.04128658 Ry
     cavitation energy         =       0.02086374 Ry
     PV energy                 =      -0.08478629 Ry
     correction to one-el term =     188.24470909 Ry

     iteration # 64     ecut=    50.00 Ry     beta= 0.70
     Davidson diagonalization with overlap
     ethr =  2.58E-11,  avg # of iterations =  1.0

     negative rho (up, down):  1.121E-04 0.000E+00

     add environment contribution to local potential
     Polarization accuracy = 4.5E-12, # of iterations =  42

     total cpu time spent up to now is    20637.7 secs

     total energy              =   -3437.44354588 Ry
     estimated scf accuracy    <       0.00000010 Ry
     electrostatic embedding   =      -0.04128658 Ry
     cavitation energy         =       0.02086374 Ry
     PV energy                 =      -0.08478629 Ry
     correction to one-el term =     188.24471061 Ry

     iteration # 65     ecut=    50.00 Ry     beta= 0.70
     Davidson diagonalization with overlap
     ethr =  2.58E-11,  avg # of iterations =  1.0

     negative rho (up, down):  1.121E-04 0.000E+00

     add environment contribution to local potential
     Polarization accuracy = 5.0E-12, # of iterations =  43

     total cpu time spent up to now is    20778.6 secs

     total energy              =   -3437.44354588 Ry
     estimated scf accuracy    <       0.00000010 Ry
     electrostatic embedding   =      -0.04128658 Ry
     cavitation energy         =       0.02086374 Ry
     PV energy                 =      -0.08478629 Ry
     correction to one-el term =     188.24470906 Ry

     iteration # 66     ecut=    50.00 Ry     beta= 0.70
     Davidson diagonalization with overlap
     ethr =  2.58E-11,  avg # of iterations =  1.0

     negative rho (up, down):  1.121E-04 0.000E+00

     add environment contribution to local potential
     Polarization accuracy = 4.5E-12, # of iterations =  42

     total cpu time spent up to now is    20910.8 secs

     total energy              =   -3437.44354588 Ry
     estimated scf accuracy    <       0.00000010 Ry
     electrostatic embedding   =      -0.04128658 Ry
     cavitation energy         =       0.02086374 Ry
     PV energy                 =      -0.08478629 Ry
     correction to one-el term =     188.24470909 Ry

     iteration # 67     ecut=    50.00 Ry     beta= 0.70
     Davidson diagonalization with overlap
     ethr =  2.58E-11,  avg # of iterations =  1.0

     negative rho (up, down):  1.121E-04 0.000E+00

     add environment contribution to local potential
     Polarization accuracy = 4.5E-12, # of iterations =  42

     total cpu time spent up to now is    21047.8 secs

     total energy              =   -3437.44354588 Ry
     estimated scf accuracy    <       0.00000010 Ry
     electrostatic embedding   =      -0.04128658 Ry
     cavitation energy         =       0.02086374 Ry
     PV energy                 =      -0.08478629 Ry
     correction to one-el term =     188.24470905 Ry

     iteration # 68     ecut=    50.00 Ry     beta= 0.70
     Davidson diagonalization with overlap
     ethr =  2.58E-11,  avg # of iterations =  1.0

     negative rho (up, down):  1.121E-04 0.000E+00

     add environment contribution to local potential
     Polarization accuracy = 4.5E-12, # of iterations =  42

     total cpu time spent up to now is    21185.8 secs

     total energy              =   -3437.44354588 Ry
     estimated scf accuracy    <       0.00000010 Ry
     electrostatic embedding   =      -0.04128658 Ry
     cavitation energy         =       0.02086374 Ry
     PV energy                 =      -0.08478629 Ry
     correction to one-el term =     188.24470906 Ry

     iteration # 69     ecut=    50.00 Ry     beta= 0.70
     Davidson diagonalization with overlap
     ethr =  2.58E-11,  avg # of iterations =  1.0

     negative rho (up, down):  1.121E-04 0.000E+00

     add environment contribution to local potential
     Polarization accuracy = 4.5E-12, # of iterations =  42

     total cpu time spent up to now is    21320.7 secs

     total energy              =   -3437.44354588 Ry
     estimated scf accuracy    <       0.00000010 Ry
     electrostatic embedding   =      -0.04128658 Ry
     cavitation energy         =       0.02086374 Ry
     PV energy                 =      -0.08478629 Ry
     correction to one-el term =     188.24470906 Ry

     iteration # 70     ecut=    50.00 Ry     beta= 0.70
     Davidson diagonalization with overlap
     ethr =  2.58E-11,  avg # of iterations =  1.0

     negative rho (up, down):  1.121E-04 0.000E+00

     add environment contribution to local potential
     Polarization accuracy = 4.5E-12, # of iterations =  42

     total cpu time spent up to now is    21454.1 secs

     total energy              =   -3437.44354588 Ry
     estimated scf accuracy    <       0.00000010 Ry
     electrostatic embedding   =      -0.04128658 Ry
     cavitation energy         =       0.02086374 Ry
     PV energy                 =      -0.08478629 Ry
     correction to one-el term =     188.24470909 Ry

     iteration # 71     ecut=    50.00 Ry     beta= 0.70
     Davidson diagonalization with overlap
     ethr =  2.58E-11,  avg # of iterations =  1.0

     negative rho (up, down):  1.121E-04 0.000E+00

     add environment contribution to local potential
     Polarization accuracy = 4.5E-12, # of iterations =  42

     total cpu time spent up to now is    21576.1 secs

     total energy              =   -3437.44354588 Ry
     estimated scf accuracy    <       0.00000010 Ry
     electrostatic embedding   =      -0.04128658 Ry
     cavitation energy         =       0.02086374 Ry
     PV energy                 =      -0.08478629 Ry
     correction to one-el term =     188.24470910 Ry

     iteration # 72     ecut=    50.00 Ry     beta= 0.70
     Davidson diagonalization with overlap
     ethr =  2.58E-11,  avg # of iterations =  1.0

     negative rho (up, down):  1.121E-04 0.000E+00

     add environment contribution to local potential
     Polarization accuracy = 4.5E-12, # of iterations =  42

     total cpu time spent up to now is    21721.9 secs

     total energy              =   -3437.44354588 Ry
     estimated scf accuracy    <       0.00000010 Ry
     electrostatic embedding   =      -0.04128658 Ry
     cavitation energy         =       0.02086374 Ry
     PV energy                 =      -0.08478629 Ry
     correction to one-el term =     188.24470912 Ry

     iteration # 73     ecut=    50.00 Ry     beta= 0.70
     Davidson diagonalization with overlap
     ethr =  2.58E-11,  avg # of iterations =  1.0

     negative rho (up, down):  1.121E-04 0.000E+00

     add environment contribution to local potential
     Polarization accuracy = 4.5E-12, # of iterations =  42

     total cpu time spent up to now is    21849.0 secs

     total energy              =   -3437.44354588 Ry
     estimated scf accuracy    <       0.00000010 Ry
     electrostatic embedding   =      -0.04128658 Ry
     cavitation energy         =       0.02086374 Ry
     PV energy                 =      -0.08478629 Ry
     correction to one-el term =     188.24470928 Ry

     iteration # 74     ecut=    50.00 Ry     beta= 0.70
     Davidson diagonalization with overlap
     ethr =  2.58E-11,  avg # of iterations =  1.0

     negative rho (up, down):  1.121E-04 0.000E+00

     add environment contribution to local potential
     Polarization accuracy = 4.5E-12, # of iterations =  42

     total cpu time spent up to now is    21993.3 secs

     total energy              =   -3437.44354588 Ry
     estimated scf accuracy    <       0.00000010 Ry
     electrostatic embedding   =      -0.04128658 Ry
     cavitation energy         =       0.02086374 Ry
     PV energy                 =      -0.08478629 Ry
     correction to one-el term =     188.24470947 Ry

     iteration # 75     ecut=    50.00 Ry     beta= 0.70
     Davidson diagonalization with overlap
     ethr =  2.58E-11,  avg # of iterations =  1.0

     negative rho (up, down):  1.121E-04 0.000E+00

     add environment contribution to local potential
     Polarization accuracy = 4.5E-12, # of iterations =  42

     total cpu time spent up to now is    22135.3 secs

     total energy              =   -3437.44354588 Ry
     estimated scf accuracy    <       0.00000010 Ry
     electrostatic embedding   =      -0.04128658 Ry
     cavitation energy         =       0.02086374 Ry
     PV energy                 =      -0.08478629 Ry
     correction to one-el term =     188.24470972 Ry

     iteration # 76     ecut=    50.00 Ry     beta= 0.70
     Davidson diagonalization with overlap
     ethr =  2.58E-11,  avg # of iterations =  1.0

     negative rho (up, down):  1.121E-04 0.000E+00

     add environment contribution to local potential
     Polarization accuracy = 4.5E-12, # of iterations =  42

     total cpu time spent up to now is    22282.8 secs

     total energy              =   -3437.44354588 Ry
     estimated scf accuracy    <       0.00000010 Ry
     electrostatic embedding   =      -0.04128658 Ry
     cavitation energy         =       0.02086374 Ry
     PV energy                 =      -0.08478629 Ry
     correction to one-el term =     188.24470977 Ry

     iteration # 77     ecut=    50.00 Ry     beta= 0.70
     Davidson diagonalization with overlap
     ethr =  2.58E-11,  avg # of iterations =  1.0

     negative rho (up, down):  1.121E-04 0.000E+00

     add environment contribution to local potential
     Polarization accuracy = 4.5E-12, # of iterations =  42

     total cpu time spent up to now is    22427.7 secs

     total energy              =   -3437.44354588 Ry
     estimated scf accuracy    <       0.00000010 Ry
     electrostatic embedding   =      -0.04128658 Ry
     cavitation energy         =       0.02086374 Ry
     PV energy                 =      -0.08478629 Ry
     correction to one-el term =     188.24470977 Ry

     iteration # 78     ecut=    50.00 Ry     beta= 0.70
     Davidson diagonalization with overlap
     ethr =  2.58E-11,  avg # of iterations =  1.0

     negative rho (up, down):  1.121E-04 0.000E+00

     add environment contribution to local potential
     Polarization accuracy = 4.5E-12, # of iterations =  42

     total cpu time spent up to now is    22566.3 secs

     total energy              =   -3437.44354588 Ry
     estimated scf accuracy    <       0.00000010 Ry
     electrostatic embedding   =      -0.04128658 Ry
     cavitation energy         =       0.02086374 Ry
     PV energy                 =      -0.08478629 Ry
     correction to one-el term =     188.24470965 Ry

     iteration # 79     ecut=    50.00 Ry     beta= 0.70
     Davidson diagonalization with overlap
     ethr =  2.58E-11,  avg # of iterations =  1.0

     negative rho (up, down):  1.121E-04 0.000E+00

     add environment contribution to local potential
     Polarization accuracy = 4.7E-12, # of iterations =  44

     total cpu time spent up to now is    22695.6 secs

     total energy              =   -3437.44354588 Ry
     estimated scf accuracy    <       0.00000010 Ry
     electrostatic embedding   =      -0.04128658 Ry
     cavitation energy         =       0.02086374 Ry
     PV energy                 =      -0.08478629 Ry
     correction to one-el term =     188.24470960 Ry

     iteration # 80     ecut=    50.00 Ry     beta= 0.70
     Davidson diagonalization with overlap
     ethr =  2.58E-11,  avg # of iterations =  1.0

     negative rho (up, down):  1.121E-04 0.000E+00

     add environment contribution to local potential
     Polarization accuracy = 4.5E-12, # of iterations =  42

     total cpu time spent up to now is    22841.3 secs

     total energy              =   -3437.44354588 Ry
     estimated scf accuracy    <       0.00000010 Ry
     electrostatic embedding   =      -0.04128658 Ry
     cavitation energy         =       0.02086374 Ry
     PV energy                 =      -0.08478629 Ry
     correction to one-el term =     188.24470962 Ry

     iteration # 81     ecut=    50.00 Ry     beta= 0.70
     Davidson diagonalization with overlap
     ethr =  2.58E-11,  avg # of iterations =  1.0

     negative rho (up, down):  1.121E-04 0.000E+00

     add environment contribution to local potential
     Polarization accuracy = 4.5E-12, # of iterations =  42

     total cpu time spent up to now is    22980.4 secs

     total energy              =   -3437.44354588 Ry
     estimated scf accuracy    <       0.00000010 Ry
     electrostatic embedding   =      -0.04128658 Ry
     cavitation energy         =       0.02086374 Ry
     PV energy                 =      -0.08478629 Ry
     correction to one-el term =     188.24470962 Ry

     iteration # 82     ecut=    50.00 Ry     beta= 0.70
     Davidson diagonalization with overlap
     ethr =  2.58E-11,  avg # of iterations =  1.0

     negative rho (up, down):  1.121E-04 0.000E+00

     add environment contribution to local potential
     Polarization accuracy = 4.5E-12, # of iterations =  42

     total cpu time spent up to now is    23122.2 secs

     total energy              =   -3437.44354588 Ry
     estimated scf accuracy    <       0.00000010 Ry
     electrostatic embedding   =      -0.04128658 Ry
     cavitation energy         =       0.02086374 Ry
     PV energy                 =      -0.08478629 Ry
     correction to one-el term =     188.24470954 Ry

     iteration # 83     ecut=    50.00 Ry     beta= 0.70
     Davidson diagonalization with overlap
     ethr =  2.58E-11,  avg # of iterations =  1.0

     negative rho (up, down):  1.121E-04 0.000E+00

     add environment contribution to local potential
     Polarization accuracy = 4.5E-12, # of iterations =  42

     total cpu time spent up to now is    23256.0 secs

     total energy              =   -3437.44354588 Ry
     estimated scf accuracy    <       0.00000010 Ry
     electrostatic embedding   =      -0.04128658 Ry
     cavitation energy         =       0.02086374 Ry
     PV energy                 =      -0.08478629 Ry
     correction to one-el term =     188.24470956 Ry

     iteration # 84     ecut=    50.00 Ry     beta= 0.70
     Davidson diagonalization with overlap
     ethr =  2.58E-11,  avg # of iterations =  1.0

     negative rho (up, down):  1.121E-04 0.000E+00

     add environment contribution to local potential
     Polarization accuracy = 4.5E-12, # of iterations =  42

     total cpu time spent up to now is    23393.8 secs

     total energy              =   -3437.44354588 Ry
     estimated scf accuracy    <       0.00000010 Ry
     electrostatic embedding   =      -0.04128658 Ry
     cavitation energy         =       0.02086374 Ry
     PV energy                 =      -0.08478629 Ry
     correction to one-el term =     188.24470954 Ry

     iteration # 85     ecut=    50.00 Ry     beta= 0.70
     Davidson diagonalization with overlap
     ethr =  2.58E-11,  avg # of iterations =  1.0

     negative rho (up, down):  1.121E-04 0.000E+00

     add environment contribution to local potential
     Polarization accuracy = 4.5E-12, # of iterations =  42

     total cpu time spent up to now is    23526.5 secs

     total energy              =   -3437.44354588 Ry
     estimated scf accuracy    <       0.00000010 Ry
     electrostatic embedding   =      -0.04128658 Ry
     cavitation energy         =       0.02086374 Ry
     PV energy                 =      -0.08478629 Ry
     correction to one-el term =     188.24470954 Ry

     iteration # 86     ecut=    50.00 Ry     beta= 0.70
     Davidson diagonalization with overlap
     ethr =  2.58E-11,  avg # of iterations =  1.0

     negative rho (up, down):  1.121E-04 0.000E+00

     add environment contribution to local potential
     Polarization accuracy = 4.5E-12, # of iterations =  42

     total cpu time spent up to now is    23664.9 secs

     total energy              =   -3437.44354588 Ry
     estimated scf accuracy    <       0.00000010 Ry
     electrostatic embedding   =      -0.04128658 Ry
     cavitation energy         =       0.02086374 Ry
     PV energy                 =      -0.08478629 Ry
     correction to one-el term =     188.24470949 Ry

     iteration # 87     ecut=    50.00 Ry     beta= 0.70
     Davidson diagonalization with overlap
     ethr =  2.58E-11,  avg # of iterations =  1.0

     negative rho (up, down):  1.121E-04 0.000E+00

     add environment contribution to local potential
     Polarization accuracy = 4.5E-12, # of iterations =  42

     total cpu time spent up to now is    23812.6 secs

     total energy              =   -3437.44354588 Ry
     estimated scf accuracy    <       0.00000010 Ry
     electrostatic embedding   =      -0.04128658 Ry
     cavitation energy         =       0.02086374 Ry
     PV energy                 =      -0.08478629 Ry
     correction to one-el term =     188.24470962 Ry

     iteration # 88     ecut=    50.00 Ry     beta= 0.70
     Davidson diagonalization with overlap
     ethr =  2.58E-11,  avg # of iterations =  1.0

     negative rho (up, down):  1.121E-04 0.000E+00

     add environment contribution to local potential
     Polarization accuracy = 4.5E-12, # of iterations =  42

     total cpu time spent up to now is    23946.8 secs

     total energy              =   -3437.44354588 Ry
     estimated scf accuracy    <       0.00000010 Ry
     electrostatic embedding   =      -0.04128658 Ry
     cavitation energy         =       0.02086374 Ry
     PV energy                 =      -0.08478629 Ry
     correction to one-el term =     188.24470954 Ry

     iteration # 89     ecut=    50.00 Ry     beta= 0.70
     Davidson diagonalization with overlap
     ethr =  2.58E-11,  avg # of iterations =  1.0

     negative rho (up, down):  1.121E-04 0.000E+00

     add environment contribution to local potential
     Polarization accuracy = 4.5E-12, # of iterations =  42

     total cpu time spent up to now is    24084.0 secs

     total energy              =   -3437.44354588 Ry
     estimated scf accuracy    <       0.00000010 Ry
     electrostatic embedding   =      -0.04128658 Ry
     cavitation energy         =       0.02086374 Ry
     PV energy                 =      -0.08478629 Ry
     correction to one-el term =     188.24470960 Ry

     iteration # 90     ecut=    50.00 Ry     beta= 0.70
     Davidson diagonalization with overlap
     ethr =  2.58E-11,  avg # of iterations =  1.0

     negative rho (up, down):  1.121E-04 0.000E+00

     add environment contribution to local potential
     Polarization accuracy = 4.5E-12, # of iterations =  42

     total cpu time spent up to now is    24226.6 secs

     total energy              =   -3437.44354588 Ry
     estimated scf accuracy    <       0.00000010 Ry
     electrostatic embedding   =      -0.04128658 Ry
     cavitation energy         =       0.02086374 Ry
     PV energy                 =      -0.08478629 Ry
     correction to one-el term =     188.24470963 Ry

     iteration # 91     ecut=    50.00 Ry     beta= 0.70
     Davidson diagonalization with overlap
     ethr =  2.58E-11,  avg # of iterations =  1.0

     negative rho (up, down):  1.121E-04 0.000E+00

     add environment contribution to local potential
     Polarization accuracy = 4.5E-12, # of iterations =  42

     total cpu time spent up to now is    24373.4 secs

     total energy              =   -3437.44354588 Ry
     estimated scf accuracy    <       0.00000010 Ry
     electrostatic embedding   =      -0.04128658 Ry
     cavitation energy         =       0.02086374 Ry
     PV energy                 =      -0.08478629 Ry
     correction to one-el term =     188.24470951 Ry

     iteration # 92     ecut=    50.00 Ry     beta= 0.70
     Davidson diagonalization with overlap
     ethr =  2.58E-11,  avg # of iterations =  1.0

     negative rho (up, down):  1.121E-04 0.000E+00

     add environment contribution to local potential
     Polarization accuracy = 4.5E-12, # of iterations =  42

     total cpu time spent up to now is    24509.4 secs

     total energy              =   -3437.44354588 Ry
     estimated scf accuracy    <       0.00000010 Ry
     electrostatic embedding   =      -0.04128658 Ry
     cavitation energy         =       0.02086374 Ry
     PV energy                 =      -0.08478629 Ry
     correction to one-el term =     188.24470954 Ry

     iteration # 93     ecut=    50.00 Ry     beta= 0.70
     Davidson diagonalization with overlap
     ethr =  2.58E-11,  avg # of iterations =  1.0

     negative rho (up, down):  1.121E-04 0.000E+00

     add environment contribution to local potential
     Polarization accuracy = 4.5E-12, # of iterations =  42

     total cpu time spent up to now is    24672.4 secs

     total energy              =   -3437.44354588 Ry
     estimated scf accuracy    <       0.00000010 Ry
     electrostatic embedding   =      -0.04128658 Ry
     cavitation energy         =       0.02086374 Ry
     PV energy                 =      -0.08478629 Ry
     correction to one-el term =     188.24470959 Ry

     iteration # 94     ecut=    50.00 Ry     beta= 0.70
     Davidson diagonalization with overlap
     ethr =  2.58E-11,  avg # of iterations =  1.0

     negative rho (up, down):  1.121E-04 0.000E+00

     add environment contribution to local potential
     Polarization accuracy = 4.5E-12, # of iterations =  42

     total cpu time spent up to now is    24799.7 secs

     total energy              =   -3437.44354588 Ry
     estimated scf accuracy    <       0.00000010 Ry
     electrostatic embedding   =      -0.04128658 Ry
     cavitation energy         =       0.02086374 Ry
     PV energy                 =      -0.08478629 Ry
     correction to one-el term =     188.24470946 Ry

     iteration # 95     ecut=    50.00 Ry     beta= 0.70
     Davidson diagonalization with overlap
     ethr =  2.58E-11,  avg # of iterations =  1.0

     negative rho (up, down):  1.121E-04 0.000E+00

     add environment contribution to local potential
     Polarization accuracy = 5.9E-12, # of iterations =  42

     total cpu time spent up to now is    24952.0 secs

     total energy              =   -3437.44354588 Ry
     estimated scf accuracy    <       0.00000010 Ry
     electrostatic embedding   =      -0.04128658 Ry
     cavitation energy         =       0.02086374 Ry
     PV energy                 =      -0.08478629 Ry
     correction to one-el term =     188.24470939 Ry

     iteration # 96     ecut=    50.00 Ry     beta= 0.70
     Davidson diagonalization with overlap
     ethr =  2.58E-11,  avg # of iterations =  1.0

     negative rho (up, down):  1.121E-04 0.000E+00

     add environment contribution to local potential
     Polarization accuracy = 4.5E-12, # of iterations =  42

     total cpu time spent up to now is    25084.1 secs

     total energy              =   -3437.44354588 Ry
     estimated scf accuracy    <       0.00000010 Ry
     electrostatic embedding   =      -0.04128658 Ry
     cavitation energy         =       0.02086374 Ry
     PV energy                 =      -0.08478629 Ry
     correction to one-el term =     188.24470939 Ry

     iteration # 97     ecut=    50.00 Ry     beta= 0.70
     Davidson diagonalization with overlap
     ethr =  2.58E-11,  avg # of iterations =  1.0

     negative rho (up, down):  1.121E-04 0.000E+00

     add environment contribution to local potential
     Polarization accuracy = 4.5E-12, # of iterations =  42

     total cpu time spent up to now is    25224.5 secs

     total energy              =   -3437.44354588 Ry
     estimated scf accuracy    <       0.00000010 Ry
     electrostatic embedding   =      -0.04128658 Ry
     cavitation energy         =       0.02086374 Ry
     PV energy                 =      -0.08478629 Ry
     correction to one-el term =     188.24470949 Ry

     iteration # 98     ecut=    50.00 Ry     beta= 0.70
     Davidson diagonalization with overlap
     ethr =  2.58E-11,  avg # of iterations =  1.0

     negative rho (up, down):  1.121E-04 0.000E+00

     add environment contribution to local potential
     Polarization accuracy = 4.5E-12, # of iterations =  42

     total cpu time spent up to now is    25365.9 secs

     total energy              =   -3437.44354588 Ry
     estimated scf accuracy    <       0.00000010 Ry
     electrostatic embedding   =      -0.04128658 Ry
     cavitation energy         =       0.02086374 Ry
     PV energy                 =      -0.08478629 Ry
     correction to one-el term =     188.24470938 Ry

     iteration # 99     ecut=    50.00 Ry     beta= 0.70
     Davidson diagonalization with overlap
     ethr =  2.58E-11,  avg # of iterations =  1.0

     negative rho (up, down):  1.121E-04 0.000E+00

     add environment contribution to local potential
     Polarization accuracy = 4.5E-12, # of iterations =  42

     total cpu time spent up to now is    25503.6 secs

     total energy              =   -3437.44354588 Ry
     estimated scf accuracy    <       0.00000010 Ry
     electrostatic embedding   =      -0.04128658 Ry
     cavitation energy         =       0.02086374 Ry
     PV energy                 =      -0.08478629 Ry
     correction to one-el term =     188.24470939 Ry

     iteration #100     ecut=    50.00 Ry     beta= 0.70
[...]
     estimated scf accuracy    <       0.00000010 Ry
     electrostatic embedding   =      -0.03039976 Ry
     cavitation energy         =       0.02085030 Ry
     PV energy                 =      -0.08309652 Ry
     correction to one-el term =     189.16029547 Ry

     iteration # 42     ecut=    50.00 Ry     beta= 0.70
     Davidson diagonalization with overlap
     ethr =  2.60E-11,  avg # of iterations =  1.0

     negative rho (up, down):  1.209E-04 0.000E+00

     add environment contribution to local potential
     Polarization accuracy = 7.7E-12, # of iterations =  42

     total cpu time spent up to now is   203530.2 secs

     total energy              =   -3437.64526258 Ry
     estimated scf accuracy    <       0.00000010 Ry
     electrostatic embedding   =      -0.03039976 Ry
     cavitation energy         =       0.02085030 Ry
     PV energy                 =      -0.08309652 Ry
     correction to one-el term =     189.16029557 Ry

     iteration # 43     ecut=    50.00 Ry     beta= 0.70
     Davidson diagonalization with overlap
     ethr =  2.60E-11,  avg # of iterations =  1.0

     negative rho (up, down):  1.209E-04 0.000E+00

     add environment contribution to local potential
     Polarization accuracy = 7.7E-12, # of iterations =  42

     total cpu time spent up to now is   203670.5 secs

     total energy              =   -3437.64526258 Ry
     estimated scf accuracy    <       0.00000010 Ry
     electrostatic embedding   =      -0.03039976 Ry
     cavitation energy         =       0.02085030 Ry
     PV energy                 =      -0.08309652 Ry
     correction to one-el term =     189.16029538 Ry

     iteration # 44     ecut=    50.00 Ry     beta= 0.70
     Davidson diagonalization with overlap
     ethr =  2.60E-11,  avg # of iterations =  1.0

     negative rho (up, down):  1.209E-04 0.000E+00

     add environment contribution to local potential
     Polarization accuracy = 7.7E-12, # of iterations =  42

     total cpu time spent up to now is   203812.3 secs

     total energy              =   -3437.64526258 Ry
     estimated scf accuracy    <       0.00000010 Ry
     electrostatic embedding   =      -0.03039976 Ry
     cavitation energy         =       0.02085030 Ry
     PV energy                 =      -0.08309652 Ry
     correction to one-el term =     189.16029540 Ry

     iteration # 45     ecut=    50.00 Ry     beta= 0.70
     Davidson diagonalization with overlap
     ethr =  2.60E-11,  avg # of iterations =  1.0

     negative rho (up, down):  1.209E-04 0.000E+00

     add environment contribution to local potential
     Polarization accuracy = 7.7E-12, # of iterations =  42

     total cpu time spent up to now is   203945.5 secs

     total energy              =   -3437.64526258 Ry
     estimated scf accuracy    <       0.00000010 Ry
     electrostatic embedding   =      -0.03039976 Ry
     cavitation energy         =       0.02085030 Ry
     PV energy                 =      -0.08309652 Ry
     correction to one-el term =     189.16029550 Ry

     iteration # 46     ecut=    50.00 Ry     beta= 0.70
     Davidson diagonalization with overlap
     ethr =  2.60E-11,  avg # of iterations =  1.0

     negative rho (up, down):  1.209E-04 0.000E+00

     add environment contribution to local potential
     Polarization accuracy = 7.7E-12, # of iterations =  42

     total cpu time spent up to now is   204077.4 secs

     total energy              =   -3437.64526258 Ry
     estimated scf accuracy    <       0.00000010 Ry
     electrostatic embedding   =      -0.03039976 Ry
     cavitation energy         =       0.02085030 Ry
     PV energy                 =      -0.08309652 Ry
     correction to one-el term =     189.16029545 Ry

     iteration # 47     ecut=    50.00 Ry     beta= 0.70
     Davidson diagonalization with overlap
     ethr =  2.60E-11,  avg # of iterations =  1.0

     negative rho (up, down):  1.209E-04 0.000E+00

     add environment contribution to local potential
     Polarization accuracy = 7.7E-12, # of iterations =  42

     total cpu time spent up to now is   204215.6 secs

     total energy              =   -3437.64526258 Ry
     estimated scf accuracy    <       0.00000010 Ry
     electrostatic embedding   =      -0.03039976 Ry
     cavitation energy         =       0.02085030 Ry
     PV energy                 =      -0.08309652 Ry
     correction to one-el term =     189.16029540 Ry

     iteration # 48     ecut=    50.00 Ry     beta= 0.70
     Davidson diagonalization with overlap
     ethr =  2.60E-11,  avg # of iterations =  1.0

     negative rho (up, down):  1.209E-04 0.000E+00

     add environment contribution to local potential
     Polarization accuracy = 7.7E-12, # of iterations =  42

     total cpu time spent up to now is   204342.9 secs

     total energy              =   -3437.64526258 Ry
     estimated scf accuracy    <       0.00000010 Ry
     electrostatic embedding   =      -0.03039976 Ry
     cavitation energy         =       0.02085030 Ry
     PV energy                 =      -0.08309652 Ry
     correction to one-el term =     189.16029553 Ry

     iteration # 49     ecut=    50.00 Ry     beta= 0.70
     Davidson diagonalization with overlap
     ethr =  2.60E-11,  avg # of iterations =  1.0

     negative rho (up, down):  1.209E-04 0.000E+00

     add environment contribution to local potential
     Polarization accuracy = 7.7E-12, # of iterations =  42

     total cpu time spent up to now is   204481.8 secs

     total energy              =   -3437.64526258 Ry
     estimated scf accuracy    <       0.00000010 Ry
     electrostatic embedding   =      -0.03039976 Ry
     cavitation energy         =       0.02085030 Ry
     PV energy                 =      -0.08309652 Ry
     correction to one-el term =     189.16029551 Ry

     iteration # 50     ecut=    50.00 Ry     beta= 0.70
     Davidson diagonalization with overlap
     ethr =  2.60E-11,  avg # of iterations =  1.0

     negative rho (up, down):  1.209E-04 0.000E+00

     add environment contribution to local potential
     Polarization accuracy = 7.7E-12, # of iterations =  42

     total cpu time spent up to now is   204615.2 secs

     total energy              =   -3437.64526258 Ry
     estimated scf accuracy    <       0.00000010 Ry
     electrostatic embedding   =      -0.03039976 Ry
     cavitation energy         =       0.02085030 Ry
     PV energy                 =      -0.08309652 Ry
     correction to one-el term =     189.16029553 Ry

     iteration # 51     ecut=    50.00 Ry     beta= 0.70
     Davidson diagonalization with overlap
     ethr =  2.60E-11,  avg # of iterations =  1.0

     negative rho (up, down):  1.209E-04 0.000E+00

     add environment contribution to local potential
     Polarization accuracy = 7.7E-12, # of iterations =  42

     total cpu time spent up to now is   204758.1 secs

     total energy              =   -3437.64526258 Ry
     estimated scf accuracy    <       0.00000010 Ry
     electrostatic embedding   =      -0.03039976 Ry
     cavitation energy         =       0.02085030 Ry
     PV energy                 =      -0.08309652 Ry
     correction to one-el term =     189.16029554 Ry

     iteration # 52     ecut=    50.00 Ry     beta= 0.70
     Davidson diagonalization with overlap
     ethr =  2.60E-11,  avg # of iterations =  1.0

     negative rho (up, down):  1.209E-04 0.000E+00

     add environment contribution to local potential
     Polarization accuracy = 7.7E-12, # of iterations =  42

     total cpu time spent up to now is   204891.6 secs

     total energy              =   -3437.64526258 Ry
     estimated scf accuracy    <       0.00000010 Ry
     electrostatic embedding   =      -0.03039976 Ry
     cavitation energy         =       0.02085030 Ry
     PV energy                 =      -0.08309652 Ry
     correction to one-el term =     189.16029541 Ry

     iteration # 53     ecut=    50.00 Ry     beta= 0.70
     Davidson diagonalization with overlap
     ethr =  2.60E-11,  avg # of iterations =  1.0

     negative rho (up, down):  1.209E-04 0.000E+00

     add environment contribution to local potential
     Polarization accuracy = 7.7E-12, # of iterations =  42

     total cpu time spent up to now is   205025.8 secs

     total energy              =   -3437.64526258 Ry
     estimated scf accuracy    <       0.00000010 Ry
     electrostatic embedding   =      -0.03039976 Ry
     cavitation energy         =       0.02085030 Ry
     PV energy                 =      -0.08309652 Ry
     correction to one-el term =     189.16029558 Ry

     iteration # 54     ecut=    50.00 Ry     beta= 0.70
     Davidson diagonalization with overlap
     ethr =  2.60E-11,  avg # of iterations =  1.0

     negative rho (up, down):  1.209E-04 0.000E+00

     add environment contribution to local potential
     Polarization accuracy = 7.7E-12, # of iterations =  42

     total cpu time spent up to now is   205175.9 secs

     total energy              =   -3437.64526258 Ry
     estimated scf accuracy    <       0.00000010 Ry
     electrostatic embedding   =      -0.03039976 Ry
     cavitation energy         =       0.02085030 Ry
     PV energy                 =      -0.08309652 Ry
     correction to one-el term =     189.16029534 Ry

     iteration # 55     ecut=    50.00 Ry     beta= 0.70
     Davidson diagonalization with overlap
     ethr =  2.60E-11,  avg # of iterations =  1.0

     negative rho (up, down):  1.209E-04 0.000E+00

     add environment contribution to local potential
     Polarization accuracy = 7.7E-12, # of iterations =  42

     total cpu time spent up to now is   205295.1 secs

     total energy              =   -3437.64526258 Ry
     estimated scf accuracy    <       0.00000010 Ry
     electrostatic embedding   =      -0.03039976 Ry
     cavitation energy         =       0.02085030 Ry
     PV energy                 =      -0.08309652 Ry
     correction to one-el term =     189.16029546 Ry

     iteration # 56     ecut=    50.00 Ry     beta= 0.70
     Davidson diagonalization with overlap
     ethr =  2.60E-11,  avg # of iterations =  1.0

     negative rho (up, down):  1.209E-04 0.000E+00

     add environment contribution to local potential
     Polarization accuracy = 7.7E-12, # of iterations =  42

     total cpu time spent up to now is   205450.1 secs

     total energy              =   -3437.64526258 Ry
     estimated scf accuracy    <       0.00000010 Ry
     electrostatic embedding   =      -0.03039976 Ry
     cavitation energy         =       0.02085030 Ry
     PV energy                 =      -0.08309652 Ry
     correction to one-el term =     189.16029548 Ry

     iteration # 57     ecut=    50.00 Ry     beta= 0.70
     Davidson diagonalization with overlap
     ethr =  2.60E-11,  avg # of iterations =  1.0

     negative rho (up, down):  1.209E-04 0.000E+00

     add environment contribution to local potential
     Polarization accuracy = 7.7E-12, # of iterations =  42

     total cpu time spent up to now is   205581.2 secs

     total energy              =   -3437.64526258 Ry
     estimated scf accuracy    <       0.00000010 Ry
     electrostatic embedding   =      -0.03039976 Ry
     cavitation energy         =       0.02085030 Ry
     PV energy                 =      -0.08309652 Ry
     correction to one-el term =     189.16029548 Ry

     iteration # 58     ecut=    50.00 Ry     beta= 0.70
     Davidson diagonalization with overlap
     ethr =  2.60E-11,  avg # of iterations =  1.0

     negative rho (up, down):  1.209E-04 0.000E+00

     add environment contribution to local potential
     Polarization accuracy = 7.7E-12, # of iterations =  42

     total cpu time spent up to now is   205716.8 secs

     total energy              =   -3437.64526258 Ry
     estimated scf accuracy    <       0.00000010 Ry
     electrostatic embedding   =      -0.03039976 Ry
     cavitation energy         =       0.02085030 Ry
     PV energy                 =      -0.08309652 Ry
     correction to one-el term =     189.16029548 Ry

     iteration # 59     ecut=    50.00 Ry     beta= 0.70
     Davidson diagonalization with overlap
     ethr =  2.60E-11,  avg # of iterations =  1.0

     negative rho (up, down):  1.209E-04 0.000E+00

     add environment contribution to local potential
     Polarization accuracy = 7.7E-12, # of iterations =  42

     total cpu time spent up to now is   205853.4 secs

     total energy              =   -3437.64526258 Ry
     estimated scf accuracy    <       0.00000010 Ry
     electrostatic embedding   =      -0.03039976 Ry
     cavitation energy         =       0.02085030 Ry
     PV energy                 =      -0.08309652 Ry
     correction to one-el term =     189.16029559 Ry

     iteration # 60     ecut=    50.00 Ry     beta= 0.70
     Davidson diagonalization with overlap
     ethr =  2.60E-11,  avg # of iterations =  1.0

     negative rho (up, down):  1.209E-04 0.000E+00

     add environment contribution to local potential
     Polarization accuracy = 7.7E-12, # of iterations =  42

     total cpu time spent up to now is   206001.0 secs

     total energy              =   -3437.64526258 Ry
     estimated scf accuracy    <       0.00000010 Ry
     electrostatic embedding   =      -0.03039976 Ry
     cavitation energy         =       0.02085030 Ry
     PV energy                 =      -0.08309652 Ry
     correction to one-el term =     189.16029561 Ry

     iteration # 61     ecut=    50.00 Ry     beta= 0.70
     Davidson diagonalization with overlap
     ethr =  2.60E-11,  avg # of iterations =  1.0

     negative rho (up, down):  1.209E-04 0.000E+00

     add environment contribution to local potential
     Polarization accuracy = 7.7E-12, # of iterations =  42

     total cpu time spent up to now is   206131.9 secs

     total energy              =   -3437.64526258 Ry
     estimated scf accuracy    <       0.00000010 Ry
     electrostatic embedding   =      -0.03039976 Ry
     cavitation energy         =       0.02085030 Ry
     PV energy                 =      -0.08309652 Ry
     correction to one-el term =     189.16029577 Ry

     iteration # 62     ecut=    50.00 Ry     beta= 0.70
     Davidson diagonalization with overlap
     ethr =  2.60E-11,  avg # of iterations =  1.0

     negative rho (up, down):  1.209E-04 0.000E+00

     add environment contribution to local potential
     Polarization accuracy = 7.7E-12, # of iterations =  42

     total cpu time spent up to now is   206262.7 secs

     total energy              =   -3437.64526258 Ry
     estimated scf accuracy    <       0.00000010 Ry
     electrostatic embedding   =      -0.03039976 Ry
     cavitation energy         =       0.02085030 Ry
     PV energy                 =      -0.08309652 Ry
     correction to one-el term =     189.16029580 Ry

     iteration # 63     ecut=    50.00 Ry     beta= 0.70
     Davidson diagonalization with overlap
     ethr =  2.60E-11,  avg # of iterations =  1.0

     negative rho (up, down):  1.209E-04 0.000E+00

     add environment contribution to local potential
     Polarization accuracy = 7.7E-12, # of iterations =  42

     total cpu time spent up to now is   206402.0 secs

     total energy              =   -3437.64526258 Ry
     estimated scf accuracy    <       0.00000010 Ry
     electrostatic embedding   =      -0.03039976 Ry
     cavitation energy         =       0.02085030 Ry
     PV energy                 =      -0.08309652 Ry
     correction to one-el term =     189.16029585 Ry

     iteration # 64     ecut=    50.00 Ry     beta= 0.70
     Davidson diagonalization with overlap
     ethr =  2.60E-11,  avg # of iterations =  1.0

     negative rho (up, down):  1.209E-04 0.000E+00

     add environment contribution to local potential
     Polarization accuracy = 7.7E-12, # of iterations =  42

     total cpu time spent up to now is   206529.8 secs

     total energy              =   -3437.64526258 Ry
     estimated scf accuracy    <       0.00000010 Ry
     electrostatic embedding   =      -0.03039976 Ry
     cavitation energy         =       0.02085030 Ry
     PV energy                 =      -0.08309652 Ry
     correction to one-el term =     189.16029570 Ry

     iteration # 65     ecut=    50.00 Ry     beta= 0.70
     Davidson diagonalization with overlap
     ethr =  2.60E-11,  avg # of iterations =  1.0

     negative rho (up, down):  1.209E-04 0.000E+00

     add environment contribution to local potential
     Polarization accuracy = 7.7E-12, # of iterations =  42

     total cpu time spent up to now is   206679.7 secs

     total energy              =   -3437.64526258 Ry
     estimated scf accuracy    <       0.00000010 Ry
     electrostatic embedding   =      -0.03039976 Ry
     cavitation energy         =       0.02085030 Ry
     PV energy                 =      -0.08309652 Ry
     correction to one-el term =     189.16029568 Ry

     iteration # 66     ecut=    50.00 Ry     beta= 0.70
     Davidson diagonalization with overlap
     ethr =  2.60E-11,  avg # of iterations =  1.0

     negative rho (up, down):  1.209E-04 0.000E+00

     add environment contribution to local potential
     Polarization accuracy = 7.7E-12, # of iterations =  42

     total cpu time spent up to now is   206828.2 secs

     total energy              =   -3437.64526258 Ry
     estimated scf accuracy    <       0.00000010 Ry
     electrostatic embedding   =      -0.03039976 Ry
     cavitation energy         =       0.02085030 Ry
     PV energy                 =      -0.08309652 Ry
     correction to one-el term =     189.16029568 Ry

     iteration # 67     ecut=    50.00 Ry     beta= 0.70
     Davidson diagonalization with overlap
     ethr =  2.60E-11,  avg # of iterations =  1.0

     negative rho (up, down):  1.209E-04 0.000E+00

     add environment contribution to local potential
     Polarization accuracy = 7.7E-12, # of iterations =  42

     total cpu time spent up to now is   206967.8 secs

     total energy              =   -3437.64526258 Ry
     estimated scf accuracy    <       0.00000010 Ry
     electrostatic embedding   =      -0.03039976 Ry
     cavitation energy         =       0.02085030 Ry
     PV energy                 =      -0.08309652 Ry
     correction to one-el term =     189.16029570 Ry

     iteration # 68     ecut=    50.00 Ry     beta= 0.70
     Davidson diagonalization with overlap
     ethr =  2.60E-11,  avg # of iterations =  1.0

     negative rho (up, down):  1.209E-04 0.000E+00

     add environment contribution to local potential
     Polarization accuracy = 7.7E-12, # of iterations =  42

     total cpu time spent up to now is   207112.3 secs

     total energy              =   -3437.64526258 Ry
     estimated scf accuracy    <       0.00000010 Ry
     electrostatic embedding   =      -0.03039976 Ry
     cavitation energy         =       0.02085030 Ry
     PV energy                 =      -0.08309652 Ry
     correction to one-el term =     189.16029568 Ry

     iteration # 69     ecut=    50.00 Ry     beta= 0.70
     Davidson diagonalization with overlap
     ethr =  2.60E-11,  avg # of iterations =  1.0

     negative rho (up, down):  1.209E-04 0.000E+00

     add environment contribution to local potential
     Polarization accuracy = 7.7E-12, # of iterations =  42

     total cpu time spent up to now is   207243.1 secs

     total energy              =   -3437.64526258 Ry
     estimated scf accuracy    <       0.00000010 Ry
     electrostatic embedding   =      -0.03039976 Ry
     cavitation energy         =       0.02085030 Ry
     PV energy                 =      -0.08309652 Ry
     correction to one-el term =     189.16029549 Ry

     iteration # 70     ecut=    50.00 Ry     beta= 0.70
     Davidson diagonalization with overlap
     ethr =  2.60E-11,  avg # of iterations =  1.0

     negative rho (up, down):  1.209E-04 0.000E+00

     add environment contribution to local potential
     Polarization accuracy = 7.7E-12, # of iterations =  42
