
     Program PWSCF v.7.2 starts on 14Jul2023 at 10:29:35 
        Git branch: heads/qe-7.2
        Last git commit: b4c5e8deeb7d1863e7553a87b45f8d22c21926a5
        Last git commit date: Mon Mar 27 16:12:09 2023 +0000
        Last git commit subject: Merge branch 'merge_fix_hubbard' into 'develop'

     This program is part of the open-source Quantum ESPRESSO suite
     for quantum simulation of materials; please cite
         "P. Giannozzi et al., J. Phys.:Condens. Matter 21 395502 (2009);
         "P. Giannozzi et al., J. Phys.:Condens. Matter 29 465901 (2017);
         "P. Giannozzi et al., J. Chem. Phys. 152 154105 (2020);
          URL http://www.quantum-espresso.org", 
     in publications or presentations arising from this work. More details at
     http://www.quantum-espresso.org/quote

     Parallel version (MPI), running on    20 processors

     MPI processes distributed on     1 nodes
     110516 MiB available memory on the printing compute node when the environment starts
 
     Reading input from RuO2-110-0-035.in

     Current dimensions of program PWSCF are:
     Max number of different atomic species (ntypx) = 10
     Max number of k-points (npk) =  40000
     Max angular momentum in pseudopotentials (lmaxx) =  4
 
     Reading input from environ.in:
     * Environ restarting
     * setting up water environment
     * using electronic solvent mode
     * setting boundary derivatives method to SCCS default
     
     file O.pbe-n-kjpaw_psl.0.1.UPF: wavefunction(s)  2P renormalized
     Message from routine setup:
     using ibrav=0 with symmetry is DISCOURAGED, use correct ibrav instead
 
     R & G space division:  proc/nbgrp/npool/nimage =      20
     Subspace diagonalization in iterative solution of the eigenvalue problem:
     one sub-group per band group will be used
     scalapack distributed-memory algorithm (size of sub-group:  2*  2 procs)

 
     Parallelization info
     --------------------
     sticks:   dense  smooth     PW     G-vecs:    dense   smooth      PW
     Min         276     110     29                54830    13868    1873
     Max         277     111     30                54841    13883    1882
     Sum        5527    2209    585              1096679   277485   37533
 
     Using Slab Decomposition
 


     bravais-lattice index     =            0
     lattice parameter (alat)  =      12.3893  a.u.
     unit-cell volume          =    5808.5831 (a.u.)^3
     number of atoms/cell      =           46
     number of atomic types    =            3
     number of electrons       =       366.00
     number of Kohn-Sham states=          220
     kinetic-energy cutoff     =      50.0000  Ry
     charge density cutoff     =     500.0000  Ry
     scf convergence threshold =      1.0E-10
     mixing beta               =       0.7000
     number of iterations used =            8  local-TF  mixing
     energy convergence thresh.=      1.0E-04
     force convergence thresh. =      1.0E-04
     Exchange-correlation= PBE
                           (   1   4   3   4   0   0   0)
     nstep                     =          200


     ================================================================================
 
                                  Environ Setup Summary

     ================================================================================
 
     Please cite

          O. Andreussi, I. Dabo and N. Marzari, J. Chem. Phys. 136, 064102 (2012)

     in publications or presentations arising from this work.

     ================================================================================
 
     Parameters
     ==========

     compensation onset threshold      =               0.1000E+00
     static permittivity               =                    78.30
     surface tension in input (dyn/cm) =                    47.90
     surface tension in internal units =               0.6153E-04
     external pressure in input (GPa)  =                    -0.36
     external pressure in inter. units =              -0.2447E-04

     Solvent Boundary
     ================

     solvent mode                      =               electronic
     derivatives method                =                    chain
     numerical core for derivatives    =                      fft
     switching function adopted        =                     SCCS
     density limit for vacuum region   =               0.5000E-02
     density limit for bulk solvent    =               0.1000E-03

     Electrostatic Setup
     ===================

     electrostatic problem to solve    =              generalized
     numerical solver adopted          =                       cg
     type of auxiliary density adopted =                     none
     numerical core for poisson        =                      fft
     type of pbc corrections           =                parabolic
     numerical core for corrections    =                      1da

     ================================================================================
 

     celldm(1)=  12.389316  celldm(2)=   0.000000  celldm(3)=   0.000000
     celldm(4)=   0.000000  celldm(5)=   0.000000  celldm(6)=   0.000000

     crystal axes: (cart. coord. in units of alat)
               a(1) = (   1.000000   0.000000   0.000000 )  
               a(2) = (   0.000000   0.904766   0.000000 )  
               a(3) = (   0.000000   0.000000   3.375918 )  

     reciprocal axes: (cart. coord. in units 2 pi/alat)
               b(1) = (  1.000000  0.000000  0.000000 )  
               b(2) = (  0.000000  1.105258  0.000000 )  
               b(3) = (  0.000000  0.000000  0.296216 )  


     PseudoPot. # 1 for O  read from file:
     /gpfs/group/ixd4/default/Simon/pseudopotentials/materialscloud/SSSP_1.3.0_PBE_efficiency/O.pbe-n-kjpaw_psl.0.1.UPF
     MD5 check sum: 0234752ac141de4415c5fc33072bef88
     Pseudo is Projector augmented-wave + core cor, Zval =  6.0
     Generated using "atomic" code by A. Dal Corso  v.5.0.99 svn rev. 10869
     Shape of augmentation charge: BESSEL
     Using radial grid of 1095 points,  4 beta functions with: 
                l(1) =   0
                l(2) =   0
                l(3) =   1
                l(4) =   1
     Q(r) pseudized with 0 coefficients 


     PseudoPot. # 2 for Ru read from file:
     /gpfs/group/ixd4/default/Simon/pseudopotentials/materialscloud/SSSP_1.3.0_PBE_efficiency/Ru_ONCV_PBE-1.0.oncvpsp.upf
     MD5 check sum: be037bb81c227cfb9b1461a9f099f4bd
     Pseudo is Norm-conserving, Zval = 16.0
     Generated using ONCVPSP code by D. R. Hamann
     Using radial grid of 1458 points,  6 beta functions with: 
                l(1) =   0
                l(2) =   0
                l(3) =   1
                l(4) =   1
                l(5) =   2
                l(6) =   2

     PseudoPot. # 3 for H  read from file:
     /gpfs/group/ixd4/default/Simon/pseudopotentials/materialscloud/SSSP_1.3.0_PBE_efficiency/H.pbe-rrkjus_psl.1.0.0.UPF
     MD5 check sum: f52b6d4d1c606e5624b1dc7b2218f220
     Pseudo is Ultrasoft, Zval =  1.0
     Generated using "atomic" code by A. Dal Corso  v.5.1
     Using radial grid of  929 points,  2 beta functions with: 
                l(1) =   0
                l(2) =   0
     Q(r) pseudized with 0 coefficients 


     atomic species   valence    mass     pseudopotential
        O              6.00    15.99940     O ( 1.00)
        Ru            16.00   101.07000     Ru( 1.00)
        H              1.00     1.00794     H ( 1.00)

      4 Sym. Ops. (no inversion) found



   Cartesian axes

     site n.     atom                  positions (alat units)
         1           O   tau(   1) = (   0.0000000   0.4523832   0.8804697  )
         2           O   tau(   2) = (   0.5000000   0.4523832   0.8804697  )
         3           O   tau(   3) = (   0.0000000   0.0000000   0.9930802  )
         4           O   tau(   4) = (   0.5000000   0.0000000   0.9930802  )
         5           Ru  tau(   5) = (   0.2500000   0.0000000   1.1871684  )
         6           Ru  tau(   6) = (   0.7500000   0.0000000   1.1871684  )
         7           O   tau(   7) = (   0.2500000   0.2770530   1.1871684  )
         8           O   tau(   8) = (   0.7500000   0.2770530   1.1871684  )
         9           Ru  tau(   9) = (   0.0000000   0.4523832   1.1871684  )
        10           Ru  tau(  10) = (   0.5000000   0.4523832   1.1871684  )
        11           O   tau(  11) = (   0.2500000   0.6277133   1.1871684  )
        12           O   tau(  12) = (   0.7500000   0.6277133   1.1871684  )
        13           O   tau(  13) = (   0.0000000   0.0000000   1.3812600  )
        14           O   tau(  14) = (   0.5000000   0.0000000   1.3812600  )
        15           O   tau(  15) = (   0.0000000   0.4523832   1.4938705  )
        16           O   tau(  16) = (   0.5000000   0.4523832   1.4938705  )
        17           Ru  tau(  17) = (   0.0000000   0.0000000   1.6879622  )
        18           Ru  tau(  18) = (   0.5000000   0.0000000   1.6879622  )
        19           O   tau(  19) = (   0.2500000   0.1753301   1.6879622  )
        20           O   tau(  20) = (   0.7500000   0.1753301   1.6879622  )
        21           Ru  tau(  21) = (   0.2500000   0.4523832   1.6879622  )
        22           Ru  tau(  22) = (   0.7500000   0.4523832   1.6879622  )
        23           O   tau(  23) = (   0.2500000   0.7294371   1.6879622  )
        24           O   tau(  24) = (   0.7500000   0.7294371   1.6879622  )
        25           O   tau(  25) = (   0.0000000   0.4523832   1.8820504  )
        26           O   tau(  26) = (   0.5000000   0.4523832   1.8820504  )
        27           O   tau(  27) = (   0.0000000   0.0000000   1.9946609  )
        28           O   tau(  28) = (   0.5000000   0.0000000   1.9946609  )
        29           Ru  tau(  29) = (   0.2500000   0.0000000   2.1887525  )
        30           Ru  tau(  30) = (   0.7500000   0.0000000   2.1887525  )
        31           O   tau(  31) = (   0.2500000   0.2770530   2.1887525  )
        32           O   tau(  32) = (   0.7500000   0.2770530   2.1887525  )
        33           Ru  tau(  33) = (   0.0000000   0.4523832   2.1887525  )
        34           Ru  tau(  34) = (   0.5000000   0.4523832   2.1887525  )
        35           O   tau(  35) = (   0.2500000   0.6277133   2.1887525  )
        36           O   tau(  36) = (   0.7500000   0.6277133   2.1887525  )
        37           O   tau(  37) = (   0.0000000   0.0000000   2.3828441  )
        38           O   tau(  38) = (   0.5000000   0.0000000   2.3828441  )
        39           O   tau(  39) = (   0.0000000   0.4523832   2.4954513  )
        40           O   tau(  40) = (   0.5000000   0.4523832   2.4954513  )
        41           H   tau(  41) = (   0.1176350   0.4523832   0.7660733  )
        42           H   tau(  42) = (   0.1176350   0.4523832   2.6098442  )
        43           H   tau(  43) = (   0.5000000   0.1033388   0.8786804  )
        44           H   tau(  44) = (   0.5000000   0.1033388   2.4972371  )
        45           H   tau(  45) = (   0.5000000   0.8014275   0.8786804  )
        46           H   tau(  46) = (   0.5000000   0.8014275   2.4972371  )

     number of k points=     1  Marzari-Vanderbilt smearing, width (Ry)=  0.0300
                       cart. coord. in units 2pi/alat
        k(    1) = (   0.2500000   0.2763144   0.0000000), wk =   2.0000000

     Dense  grid:  1096679 G-vectors     FFT dimensions: (  90,  80, 300)

     Smooth grid:   277485 G-vectors     FFT dimensions: (  60,  54, 192)

     Estimated max dynamical RAM per process >     168.15 MB

     Estimated total dynamical RAM >       3.28 GB

     Check: negative core charge=   -0.000001

     Initial potential from superposition of free atoms

     starting charge     365.9933, renormalised to     366.0000

     add environment contribution to local potential
     Polarization accuracy = 7.6E-12, # of iterations =  24

     negative rho (up, down):  2.243E-05 0.000E+00
     Starting wfcs are  238 randomized atomic wfcs
     Checking if some PAW data can be deallocated... 

     total cpu time spent up to now is      802.6 secs

     per-process dynamical memory:   137.6 Mb

     Self-consistent Calculation

     iteration #  1     ecut=    50.00 Ry     beta= 0.70
     Davidson diagonalization with overlap
     ethr =  1.00E-02,  avg # of iterations =  2.0

     total cpu time spent up to now is     1008.1 secs

     total energy              =   -3431.95767867 Ry
     estimated scf accuracy    <      10.32813561 Ry
     electrostatic embedding   =      -0.00183864 Ry
     cavitation energy         =       0.02014869 Ry
     PV energy                 =      -0.08721528 Ry
     correction to one-el term =     221.65457771 Ry

     iteration #  2     ecut=    50.00 Ry     beta= 0.70
     Davidson diagonalization with overlap
     ethr =  2.82E-03,  avg # of iterations =  2.0

     total cpu time spent up to now is     1291.9 secs

     total energy              =   -3433.66555012 Ry
     estimated scf accuracy    <      16.25243529 Ry
     electrostatic embedding   =      -0.00285009 Ry
     cavitation energy         =       0.02039786 Ry
     PV energy                 =      -0.08746536 Ry
     correction to one-el term =     221.65708514 Ry

     iteration #  3     ecut=    50.00 Ry     beta= 0.70
     Davidson diagonalization with overlap
     ethr =  2.82E-03,  avg # of iterations =  1.0

     total cpu time spent up to now is     1527.1 secs

     total energy              =   -3434.41754813 Ry
     estimated scf accuracy    <       2.71223850 Ry
     electrostatic embedding   =      -0.00335073 Ry
     cavitation energy         =       0.02016659 Ry
     PV energy                 =      -0.08826268 Ry
     correction to one-el term =     221.65891763 Ry

     iteration #  4     ecut=    50.00 Ry     beta= 0.70
     Davidson diagonalization with overlap
     ethr =  7.41E-04,  avg # of iterations =  2.0

     total cpu time spent up to now is     1772.9 secs

     total energy              =   -3434.56651983 Ry
     estimated scf accuracy    <       1.03733598 Ry
     electrostatic embedding   =      -0.00358119 Ry
     cavitation energy         =       0.02014767 Ry
     PV energy                 =      -0.08800422 Ry
     correction to one-el term =     221.65936041 Ry

     iteration #  5     ecut=    50.00 Ry     beta= 0.70
     Davidson diagonalization with overlap
     ethr =  2.83E-04,  avg # of iterations =  1.0

     total cpu time spent up to now is     1953.6 secs

     total energy              =   -3434.58021861 Ry
     estimated scf accuracy    <       0.35618073 Ry
     electrostatic embedding   =      -0.00375400 Ry
     cavitation energy         =       0.02022123 Ry
     PV energy                 =      -0.08769514 Ry
     correction to one-el term =     221.65963028 Ry

     iteration #  6     ecut=    50.00 Ry     beta= 0.70
     Davidson diagonalization with overlap
     ethr =  9.73E-05,  avg # of iterations =  9.0

     total cpu time spent up to now is     2122.1 secs

     total energy              =   -3434.57710497 Ry
     estimated scf accuracy    <       0.25965887 Ry
     electrostatic embedding   =      -0.00408511 Ry
     cavitation energy         =       0.02049864 Ry
     PV energy                 =      -0.08660411 Ry
     correction to one-el term =     221.66005406 Ry

     iteration #  7     ecut=    50.00 Ry     beta= 0.70
     Davidson diagonalization with overlap
     ethr =  7.09E-05,  avg # of iterations =  1.0

     total cpu time spent up to now is     2327.8 secs

     total energy              =   -3434.57193198 Ry
     estimated scf accuracy    <       0.25343496 Ry
     electrostatic embedding   =      -0.00410829 Ry
     cavitation energy         =       0.02066179 Ry
     PV energy                 =      -0.08579038 Ry
     correction to one-el term =     221.65986893 Ry

     iteration #  8     ecut=    50.00 Ry     beta= 0.70
     Davidson diagonalization with overlap
     ethr =  6.92E-05,  avg # of iterations =  1.0

     total cpu time spent up to now is     2535.6 secs

     total energy              =   -3434.56484632 Ry
     estimated scf accuracy    <       0.14831270 Ry
     electrostatic embedding   =      -0.00403005 Ry
     cavitation energy         =       0.02081892 Ry
     PV energy                 =      -0.08505383 Ry
     correction to one-el term =     221.65945249 Ry

     iteration #  9     ecut=    50.00 Ry     beta= 0.70
     Davidson diagonalization with overlap
     ethr =  4.05E-05,  avg # of iterations =  2.0

     add environment contribution to local potential
     Polarization accuracy = 1.9E-12, # of iterations =  45

     total cpu time spent up to now is     2717.1 secs

     total energy              =   -3434.56415993 Ry
     estimated scf accuracy    <       0.04757958 Ry
     electrostatic embedding   =      -0.00375743 Ry
     cavitation energy         =       0.02105265 Ry
     PV energy                 =      -0.08415037 Ry
     correction to one-el term =     221.65845079 Ry

     iteration # 10     ecut=    50.00 Ry     beta= 0.70
     Davidson diagonalization with overlap
     ethr =  1.30E-05,  avg # of iterations = 13.0

     total cpu time spent up to now is     2916.2 secs

     total energy              =   -3434.66296276 Ry
     estimated scf accuracy    <       0.24558306 Ry
     electrostatic embedding   =      -0.09161497 Ry
     cavitation energy         =       0.02119719 Ry
     PV energy                 =      -0.08374449 Ry
     correction to one-el term =     185.19496573 Ry

     iteration # 11     ecut=    50.00 Ry     beta= 0.70
     Davidson diagonalization with overlap
     ethr =  1.30E-05,  avg # of iterations =  1.0

     total cpu time spent up to now is     3117.5 secs

     total energy              =   -3434.65809555 Ry
     estimated scf accuracy    <       0.13387369 Ry
     electrostatic embedding   =      -0.09241943 Ry
     cavitation energy         =       0.02120896 Ry
     PV energy                 =      -0.08366211 Ry
     correction to one-el term =     185.19785359 Ry

     iteration # 12     ecut=    50.00 Ry     beta= 0.70
     Davidson diagonalization with overlap
     ethr =  1.30E-05,  avg # of iterations =  1.0

     negative rho (up, down):  9.271E-08 0.000E+00

     add environment contribution to local potential
     Polarization accuracy = 4.8E-12, # of iterations =  46

     total cpu time spent up to now is     3276.9 secs

     total energy              =   -3434.64679356 Ry
     estimated scf accuracy    <       0.09543860 Ry
     electrostatic embedding   =      -0.09338459 Ry
     cavitation energy         =       0.02120114 Ry
     PV energy                 =      -0.08365623 Ry
     correction to one-el term =     185.20088363 Ry

     iteration # 13     ecut=    50.00 Ry     beta= 0.70
     Davidson diagonalization with overlap
     ethr =  1.30E-05,  avg # of iterations =  2.0

     negative rho (up, down):  1.010E-03 0.000E+00

     add environment contribution to local potential
     Polarization accuracy = 5.5E-12, # of iterations =  47

     total cpu time spent up to now is     3419.9 secs

     total energy              =   -3434.65707126 Ry
     estimated scf accuracy    <       0.03243251 Ry
     electrostatic embedding   =      -0.11220285 Ry
     cavitation energy         =       0.02122386 Ry
     PV energy                 =      -0.08341744 Ry
     correction to one-el term =     184.15566908 Ry

     iteration # 14     ecut=    50.00 Ry     beta= 0.70
     Davidson diagonalization with overlap
     ethr =  8.86E-06,  avg # of iterations =  2.0

     negative rho (up, down):  1.158E-03 0.000E+00

     add environment contribution to local potential
     Polarization accuracy = 6.0E-12, # of iterations =  47

     total cpu time spent up to now is     3632.0 secs

     total energy              =   -3434.66094815 Ry
     estimated scf accuracy    <       0.00794645 Ry
     electrostatic embedding   =      -0.12656139 Ry
     cavitation energy         =       0.02123343 Ry
     PV energy                 =      -0.08323407 Ry
     correction to one-el term =     183.58713871 Ry

     iteration # 15     ecut=    50.00 Ry     beta= 0.70
     Davidson diagonalization with overlap
     ethr =  2.17E-06,  avg # of iterations =  5.0

     negative rho (up, down):  1.109E-03 0.000E+00

     add environment contribution to local potential
     Polarization accuracy = 6.9E-12, # of iterations =  46

     total cpu time spent up to now is     3838.4 secs

     total energy              =   -3434.66202207 Ry
     estimated scf accuracy    <       0.00395919 Ry
     electrostatic embedding   =      -0.13340047 Ry
     cavitation energy         =       0.02121083 Ry
     PV energy                 =      -0.08321277 Ry
     correction to one-el term =     183.36835566 Ry

     iteration # 16     ecut=    50.00 Ry     beta= 0.70
     Davidson diagonalization with overlap
     ethr =  1.08E-06,  avg # of iterations =  7.0

     negative rho (up, down):  5.128E-06 0.000E+00

     add environment contribution to local potential
     Polarization accuracy = 8.4E-12, # of iterations =  44

     total cpu time spent up to now is     4035.2 secs

     total energy              =   -3434.66345251 Ry
     estimated scf accuracy    <       0.00075414 Ry
     electrostatic embedding   =      -0.14435719 Ry
     cavitation energy         =       0.02110791 Ry
     PV energy                 =      -0.08327119 Ry
     correction to one-el term =     183.45058355 Ry

     iteration # 17     ecut=    50.00 Ry     beta= 0.70
     Davidson diagonalization with overlap
     ethr =  2.06E-07,  avg # of iterations =  5.0

     negative rho (up, down):  1.848E-08 0.000E+00

     add environment contribution to local potential
     Polarization accuracy = 3.6E-12, # of iterations =  45

     total cpu time spent up to now is     4235.1 secs

     total energy              =   -3434.66364094 Ry
     estimated scf accuracy    <       0.00034003 Ry
     electrostatic embedding   =      -0.14311786 Ry
     cavitation energy         =       0.02104932 Ry
     PV energy                 =      -0.08339368 Ry
     correction to one-el term =     183.84436638 Ry

     iteration # 18     ecut=    50.00 Ry     beta= 0.70
     Davidson diagonalization with overlap
     ethr =  9.29E-08,  avg # of iterations =  6.0

     negative rho (up, down):  2.770E-08 0.000E+00

     add environment contribution to local potential
     Polarization accuracy = 2.2E-12, # of iterations =  45

     total cpu time spent up to now is     4411.6 secs

     total energy              =   -3434.66379249 Ry
     estimated scf accuracy    <       0.00027823 Ry
     electrostatic embedding   =      -0.14426743 Ry
     cavitation energy         =       0.02101173 Ry
     PV energy                 =      -0.08346917 Ry
     correction to one-el term =     184.07351296 Ry

     iteration # 19     ecut=    50.00 Ry     beta= 0.70
     Davidson diagonalization with overlap
     ethr =  7.60E-08,  avg # of iterations =  6.0

     negative rho (up, down):  1.085E-06 0.000E+00

     add environment contribution to local potential
     Polarization accuracy = 2.2E-12, # of iterations =  44

     total cpu time spent up to now is     4606.2 secs

     total energy              =   -3434.66386003 Ry
     estimated scf accuracy    <       0.00006070 Ry
     electrostatic embedding   =      -0.14427197 Ry
     cavitation energy         =       0.02099147 Ry
     PV energy                 =      -0.08351057 Ry
     correction to one-el term =     184.23640138 Ry

     iteration # 20     ecut=    50.00 Ry     beta= 0.70
     Davidson diagonalization with overlap
     ethr =  1.66E-08,  avg # of iterations =  7.0

     negative rho (up, down):  8.165E-06 0.000E+00

     add environment contribution to local potential
     Polarization accuracy = 2.2E-12, # of iterations =  45

     total cpu time spent up to now is     4816.1 secs

     total energy              =   -3434.66387257 Ry
     estimated scf accuracy    <       0.00002834 Ry
     electrostatic embedding   =      -0.14501113 Ry
     cavitation energy         =       0.02098459 Ry
     PV energy                 =      -0.08351967 Ry
     correction to one-el term =     184.28844183 Ry

     iteration # 21     ecut=    50.00 Ry     beta= 0.70
     Davidson diagonalization with overlap
     ethr =  7.74E-09,  avg # of iterations =  3.0

     negative rho (up, down):  5.872E-06 0.000E+00

     add environment contribution to local potential
     Polarization accuracy = 7.6E-12, # of iterations =  44

     total cpu time spent up to now is     5048.2 secs

     total energy              =   -3434.66387923 Ry
     estimated scf accuracy    <       0.00001704 Ry
     electrostatic embedding   =      -0.14482387 Ry
     cavitation energy         =       0.02098452 Ry
     PV energy                 =      -0.08352153 Ry
     correction to one-el term =     184.33953609 Ry

     iteration # 22     ecut=    50.00 Ry     beta= 0.70
     Davidson diagonalization with overlap
     ethr =  4.66E-09,  avg # of iterations =  2.0

     negative rho (up, down):  1.354E-05 0.000E+00

     add environment contribution to local potential
     Polarization accuracy = 4.7E-12, # of iterations =  45

     total cpu time spent up to now is     5252.1 secs

     total energy              =   -3434.66388496 Ry
     estimated scf accuracy    <       0.00001131 Ry
     electrostatic embedding   =      -0.14464017 Ry
     cavitation energy         =       0.02098831 Ry
     PV energy                 =      -0.08351269 Ry
     correction to one-el term =     184.37065365 Ry

     iteration # 23     ecut=    50.00 Ry     beta= 0.70
     Davidson diagonalization with overlap
     ethr =  3.09E-09,  avg # of iterations =  2.0

     negative rho (up, down):  6.660E-05 0.000E+00

     add environment contribution to local potential
     Polarization accuracy = 5.1E-12, # of iterations =  44

     total cpu time spent up to now is     5414.5 secs

     total energy              =   -3434.66388925 Ry
     estimated scf accuracy    <       0.00000564 Ry
     electrostatic embedding   =      -0.14458807 Ry
     cavitation energy         =       0.02099194 Ry
     PV energy                 =      -0.08350039 Ry
     correction to one-el term =     184.40066891 Ry

     iteration # 24     ecut=    50.00 Ry     beta= 0.70
     Davidson diagonalization with overlap
     ethr =  1.54E-09,  avg # of iterations =  5.0

     negative rho (up, down):  6.073E-05 0.000E+00

     add environment contribution to local potential
     Polarization accuracy = 4.9E-12, # of iterations =  45

     total cpu time spent up to now is     5614.6 secs

     total energy              =   -3434.66388900 Ry
     estimated scf accuracy    <       0.00000104 Ry
     electrostatic embedding   =      -0.14468871 Ry
     cavitation energy         =       0.02099054 Ry
     PV energy                 =      -0.08349949 Ry
     correction to one-el term =     184.41117528 Ry

     iteration # 25     ecut=    50.00 Ry     beta= 0.70
     Davidson diagonalization with overlap
     ethr =  2.83E-10,  avg # of iterations =  2.0

     negative rho (up, down):  8.747E-05 0.000E+00

     add environment contribution to local potential
     Polarization accuracy = 5.3E-12, # of iterations =  44

     total cpu time spent up to now is     5846.0 secs

     total energy              =   -3434.66389024 Ry
     estimated scf accuracy    <       0.00000090 Ry
     electrostatic embedding   =      -0.14461008 Ry
     cavitation energy         =       0.02099111 Ry
     PV energy                 =      -0.08349733 Ry
     correction to one-el term =     184.41978592 Ry

     iteration # 26     ecut=    50.00 Ry     beta= 0.70
     Davidson diagonalization with overlap
     ethr =  2.46E-10,  avg # of iterations =  1.0

     negative rho (up, down):  8.263E-05 0.000E+00

     add environment contribution to local potential
     Polarization accuracy = 4.9E-12, # of iterations =  45

     total cpu time spent up to now is     6011.9 secs

     total energy              =   -3434.66389068 Ry
     estimated scf accuracy    <       0.00000027 Ry
     electrostatic embedding   =      -0.14460517 Ry
     cavitation energy         =       0.02099050 Ry
     PV energy                 =      -0.08349684 Ry
     correction to one-el term =     184.42446869 Ry

     iteration # 27     ecut=    50.00 Ry     beta= 0.70
     Davidson diagonalization with overlap
     ethr =  7.48E-11,  avg # of iterations =  2.0

     negative rho (up, down):  1.048E-04 0.000E+00

     add environment contribution to local potential
     Polarization accuracy = 4.9E-12, # of iterations =  45

     total cpu time spent up to now is     6169.4 secs

     total energy              =   -3434.66389161 Ry
     estimated scf accuracy    <       0.00000012 Ry
     electrostatic embedding   =      -0.14457526 Ry
     cavitation energy         =       0.02099066 Ry
     PV energy                 =      -0.08349546 Ry
     correction to one-el term =     184.42582699 Ry

     iteration # 28     ecut=    50.00 Ry     beta= 0.70
     Davidson diagonalization with overlap
     ethr =  3.20E-11,  avg # of iterations =  2.0

     negative rho (up, down):  1.079E-04 0.000E+00

     add environment contribution to local potential
     Polarization accuracy = 5.2E-12, # of iterations =  44

     total cpu time spent up to now is     6353.4 secs

     total energy              =   -3434.66389212 Ry
     estimated scf accuracy    <       0.00000010 Ry
     electrostatic embedding   =      -0.14456881 Ry
     cavitation energy         =       0.02099031 Ry
     PV energy                 =      -0.08349582 Ry
     correction to one-el term =     184.42799172 Ry

     iteration # 29     ecut=    50.00 Ry     beta= 0.70
     Davidson diagonalization with overlap
     ethr =  2.83E-11,  avg # of iterations =  2.0

     negative rho (up, down):  1.100E-04 0.000E+00

     add environment contribution to local potential
     Polarization accuracy = 5.1E-12, # of iterations =  44

     total cpu time spent up to now is     6507.9 secs

     total energy              =   -3434.66389234 Ry
     estimated scf accuracy    <       0.00000007 Ry
     electrostatic embedding   =      -0.14456769 Ry
     cavitation energy         =       0.02099020 Ry
     PV energy                 =      -0.08349617 Ry
     correction to one-el term =     184.42763330 Ry

     iteration # 30     ecut=    50.00 Ry     beta= 0.70
     Davidson diagonalization with overlap
     ethr =  2.04E-11,  avg # of iterations =  2.0

     negative rho (up, down):  1.148E-04 0.000E+00

     add environment contribution to local potential
     Polarization accuracy = 5.2E-12, # of iterations =  45

     total cpu time spent up to now is     6706.4 secs

     total energy              =   -3434.66389280 Ry
     estimated scf accuracy    <       0.00000007 Ry
     electrostatic embedding   =      -0.14456226 Ry
     cavitation energy         =       0.02099013 Ry
     PV energy                 =      -0.08349660 Ry
     correction to one-el term =     184.42750352 Ry

     iteration # 31     ecut=    50.00 Ry     beta= 0.70
     Davidson diagonalization with overlap
     ethr =  1.99E-11,  avg # of iterations =  2.0

     negative rho (up, down):  1.210E-04 0.000E+00

     add environment contribution to local potential
     Polarization accuracy = 2.5E-12, # of iterations =  46

     total cpu time spent up to now is     6896.0 secs

     total energy              =   -3434.66389342 Ry
     estimated scf accuracy    <       0.00000007 Ry
     electrostatic embedding   =      -0.14455385 Ry
     cavitation energy         =       0.02099006 Ry
     PV energy                 =      -0.08349671 Ry
     correction to one-el term =     184.42824095 Ry

     iteration # 32     ecut=    50.00 Ry     beta= 0.70
     Davidson diagonalization with overlap
     ethr =  1.86E-11,  avg # of iterations =  2.0

     negative rho (up, down):  1.208E-04 0.000E+00

     add environment contribution to local potential
     Polarization accuracy = 4.6E-12, # of iterations =  45

     total cpu time spent up to now is     7193.2 secs

     total energy              =   -3434.66389508 Ry
     estimated scf accuracy    <       0.00000007 Ry
     electrostatic embedding   =      -0.14453524 Ry
     cavitation energy         =       0.02098994 Ry
     PV energy                 =      -0.08349710 Ry
     correction to one-el term =     184.42975848 Ry

     iteration # 33     ecut=    50.00 Ry     beta= 0.70
     Davidson diagonalization with overlap
     ethr =  1.82E-11,  avg # of iterations =  3.0

     negative rho (up, down):  1.160E-04 0.000E+00

     add environment contribution to local potential
     Polarization accuracy = 4.4E-12, # of iterations =  45

     total cpu time spent up to now is     7451.7 secs

     total energy              =   -3434.66389874 Ry
     estimated scf accuracy    <       0.00000005 Ry
     electrostatic embedding   =      -0.14449925 Ry
     cavitation energy         =       0.02098987 Ry
     PV energy                 =      -0.08349755 Ry
     correction to one-el term =     184.43290964 Ry

     iteration # 34     ecut=    50.00 Ry     beta= 0.70
     Davidson diagonalization with overlap
     ethr =  1.46E-11,  avg # of iterations =  3.0

     negative rho (up, down):  1.163E-04 0.000E+00

     add environment contribution to local potential
     Polarization accuracy = 4.4E-12, # of iterations =  45

     total cpu time spent up to now is     7631.5 secs

     total energy              =   -3434.66390434 Ry
     estimated scf accuracy    <       0.00000005 Ry
     electrostatic embedding   =      -0.14445588 Ry
     cavitation energy         =       0.02098984 Ry
     PV energy                 =      -0.08349763 Ry
     correction to one-el term =     184.43706087 Ry

     iteration # 35     ecut=    50.00 Ry     beta= 0.70
     Davidson diagonalization with overlap
     ethr =  1.46E-11,  avg # of iterations =  3.0

     negative rho (up, down):  1.155E-04 0.000E+00

     add environment contribution to local potential
     Polarization accuracy = 4.3E-12, # of iterations =  45

     total cpu time spent up to now is     7844.0 secs

     total energy              =   -3434.66391156 Ry
     estimated scf accuracy    <       0.00000003 Ry
     electrostatic embedding   =      -0.14440891 Ry
     cavitation energy         =       0.02098979 Ry
     PV energy                 =      -0.08349733 Ry
     correction to one-el term =     184.44210579 Ry

     iteration # 36     ecut=    50.00 Ry     beta= 0.70
     Davidson diagonalization with overlap
     ethr =  8.64E-12,  avg # of iterations =  5.0

     negative rho (up, down):  1.133E-04 0.000E+00

     add environment contribution to local potential
     Polarization accuracy = 4.3E-12, # of iterations =  45

     total cpu time spent up to now is     8099.0 secs

     total energy              =   -3434.66391441 Ry
     estimated scf accuracy    <       0.00000003 Ry
     electrostatic embedding   =      -0.14440328 Ry
     cavitation energy         =       0.02098975 Ry
     PV energy                 =      -0.08349747 Ry
     correction to one-el term =     184.44272554 Ry

     iteration # 37     ecut=    50.00 Ry     beta= 0.70
     Davidson diagonalization with overlap
     ethr =  8.13E-12,  avg # of iterations =  2.0

     negative rho (up, down):  1.132E-04 0.000E+00

     add environment contribution to local potential
     Polarization accuracy = 4.3E-12, # of iterations =  45

     total cpu time spent up to now is     8333.6 secs

     total energy              =   -3434.66391964 Ry
     estimated scf accuracy    <       0.00000002 Ry
     electrostatic embedding   =      -0.14439376 Ry
     cavitation energy         =       0.02098974 Ry
     PV energy                 =      -0.08349715 Ry
     correction to one-el term =     184.44432328 Ry

     iteration # 38     ecut=    50.00 Ry     beta= 0.70
     Davidson diagonalization with overlap
     ethr =  5.49E-12,  avg # of iterations =  5.0

     negative rho (up, down):  1.153E-04 0.000E+00

     add environment contribution to local potential
     Polarization accuracy = 4.8E-12, # of iterations =  44

     total cpu time spent up to now is     8510.9 secs

     total energy              =   -3434.66392361 Ry
     estimated scf accuracy    <       0.00000002 Ry
     electrostatic embedding   =      -0.14440957 Ry
     cavitation energy         =       0.02098973 Ry
     PV energy                 =      -0.08349692 Ry
     correction to one-el term =     184.44326060 Ry

     iteration # 39     ecut=    50.00 Ry     beta= 0.70
     Davidson diagonalization with overlap
     ethr =  5.24E-12,  avg # of iterations =  3.0

     negative rho (up, down):  1.187E-04 0.000E+00

     add environment contribution to local potential
     Polarization accuracy = 4.4E-12, # of iterations =  45

     total cpu time spent up to now is     8761.0 secs

     total energy              =   -3434.66392525 Ry
     estimated scf accuracy    <       0.00000001 Ry
     electrostatic embedding   =      -0.14444377 Ry
     cavitation energy         =       0.02098974 Ry
     PV energy                 =      -0.08349677 Ry
     correction to one-el term =     184.44037612 Ry

     iteration # 40     ecut=    50.00 Ry     beta= 0.70
     Davidson diagonalization with overlap
     ethr =  3.50E-12,  avg # of iterations =  5.0

     negative rho (up, down):  1.192E-04 0.000E+00

     add environment contribution to local potential
     Polarization accuracy = 4.4E-12, # of iterations =  45

     total cpu time spent up to now is     8949.9 secs

     total energy              =   -3434.66392882 Ry
     estimated scf accuracy    <          6.0E-09 Ry
     electrostatic embedding   =      -0.14447240 Ry
     cavitation energy         =       0.02098971 Ry
     PV energy                 =      -0.08349688 Ry
     correction to one-el term =     184.43769394 Ry

     iteration # 41     ecut=    50.00 Ry     beta= 0.70
     Davidson diagonalization with overlap
     ethr =  1.65E-12,  avg # of iterations =  4.0

     negative rho (up, down):  1.191E-04 0.000E+00

     add environment contribution to local potential
     Polarization accuracy = 4.7E-12, # of iterations =  44

     total cpu time spent up to now is     9167.4 secs

     total energy              =   -3434.66392885 Ry
     estimated scf accuracy    <       0.00000001 Ry
     electrostatic embedding   =      -0.14451849 Ry
     cavitation energy         =       0.02098979 Ry
     PV energy                 =      -0.08349685 Ry
     correction to one-el term =     184.43318639 Ry

     iteration # 42     ecut=    50.00 Ry     beta= 0.70
     Davidson diagonalization with overlap
     ethr =  1.65E-12,  avg # of iterations =  3.0

     negative rho (up, down):  1.196E-04 0.000E+00

     add environment contribution to local potential
     Polarization accuracy = 4.7E-12, # of iterations =  44

     total cpu time spent up to now is     9442.3 secs

     total energy              =   -3434.66393105 Ry
     estimated scf accuracy    <          3.4E-09 Ry
     electrostatic embedding   =      -0.14450808 Ry
     cavitation energy         =       0.02098979 Ry
     PV energy                 =      -0.08349690 Ry
     correction to one-el term =     184.43403162 Ry

     iteration # 43     ecut=    50.00 Ry     beta= 0.70
     Davidson diagonalization with overlap
     ethr =  9.26E-13,  avg # of iterations =  3.0

     negative rho (up, down):  1.186E-04 0.000E+00

     add environment contribution to local potential
     Polarization accuracy = 4.7E-12, # of iterations =  44

     total cpu time spent up to now is     9683.3 secs

     total energy              =   -3434.66393126 Ry
     estimated scf accuracy    <          1.6E-09 Ry
     electrostatic embedding   =      -0.14452686 Ry
     cavitation energy         =       0.02098983 Ry
     PV energy                 =      -0.08349692 Ry
     correction to one-el term =     184.43204707 Ry

     iteration # 44     ecut=    50.00 Ry     beta= 0.70
     Davidson diagonalization with overlap
     ethr =  4.29E-13,  avg # of iterations =  2.0

     negative rho (up, down):  1.171E-04 0.000E+00

     add environment contribution to local potential
     Polarization accuracy = 5.1E-12, # of iterations =  46

     total cpu time spent up to now is     9891.7 secs

     total energy              =   -3434.66393185 Ry
     estimated scf accuracy    <          1.3E-09 Ry
     electrostatic embedding   =      -0.14453159 Ry
     cavitation energy         =       0.02098988 Ry
     PV energy                 =      -0.08349693 Ry
     correction to one-el term =     184.43130871 Ry

     iteration # 45     ecut=    50.00 Ry     beta= 0.70
     Davidson diagonalization with overlap
     ethr =  3.65E-13,  avg # of iterations =  3.0

     negative rho (up, down):  1.171E-04 0.000E+00

     add environment contribution to local potential
     Polarization accuracy = 7.8E-12, # of iterations =  44

     total cpu time spent up to now is    10179.4 secs

     total energy              =   -3434.66393213 Ry
     estimated scf accuracy    <          3.7E-10 Ry
     electrostatic embedding   =      -0.14452940 Ry
     cavitation energy         =       0.02098994 Ry
     PV energy                 =      -0.08349691 Ry
     correction to one-el term =     184.43122274 Ry

     iteration # 46     ecut=    50.00 Ry     beta= 0.70
     Davidson diagonalization with overlap
     ethr =  1.01E-13,  avg # of iterations =  5.0

     negative rho (up, down):  1.167E-04 0.000E+00

     add environment contribution to local potential
     Polarization accuracy = 4.8E-12, # of iterations =  44

     total cpu time spent up to now is    10365.5 secs

     total energy              =   -3434.66393266 Ry
     estimated scf accuracy    <          3.2E-10 Ry
     electrostatic embedding   =      -0.14452833 Ry
     cavitation energy         =       0.02098994 Ry
     PV energy                 =      -0.08349687 Ry
     correction to one-el term =     184.43137651 Ry

     iteration # 47     ecut=    50.00 Ry     beta= 0.70
     Davidson diagonalization with overlap
     ethr =  1.00E-13,  avg # of iterations =  3.0

     negative rho (up, down):  1.165E-04 0.000E+00

     add environment contribution to local potential
     Polarization accuracy = 4.9E-12, # of iterations =  44

     total cpu time spent up to now is    10577.9 secs

     total energy              =   -3434.66393249 Ry
     estimated scf accuracy    <          1.6E-10 Ry
     electrostatic embedding   =      -0.14452594 Ry
     cavitation energy         =       0.02098996 Ry
     PV energy                 =      -0.08349688 Ry
     correction to one-el term =     184.43151665 Ry

     iteration # 48     ecut=    50.00 Ry     beta= 0.70
     Davidson diagonalization with overlap
     ethr =  1.00E-13,  avg # of iterations =  2.0

     negative rho (up, down):  1.168E-04 0.000E+00

     the potential shift due to the Gaussian-smeared nuclei is    -1.3466 ev

     total cpu time spent up to now is    10729.3 secs

     End of self-consistent calculation

          k = 0.2500 0.2763 0.0000 ( 34692 PWs)   bands (ev):

   -77.1183 -77.1052 -76.9878 -76.9804 -76.9750 -76.9676 -76.9225 -76.9094
   -76.8915 -76.8669 -76.7610 -76.7434 -47.4583 -47.4485 -47.4454 -47.4357
   -47.3916 -47.3825 -47.2816 -47.2685 -47.1378 -47.1247 -47.0772 -47.0641
   -46.8925 -46.8877 -46.8844 -46.8794 -46.8662 -46.8534 -46.8275 -46.8216
   -46.8146 -46.8089 -46.7981 -46.7821 -46.7693 -46.7471 -46.7344 -46.7232
   -46.7081 -46.6940 -46.6809 -46.6743 -46.6487 -46.6397 -46.5908 -46.5770
   -26.5439 -26.5254 -23.4442 -23.3562 -23.2825 -23.0396 -23.0061 -22.9589
   -22.2679 -22.2613 -22.2408 -22.2030 -22.1394 -22.0947 -22.0191 -21.9045
   -21.8334 -21.7713 -21.7301 -21.7074 -21.5603 -21.4910 -21.3757 -21.3281
   -20.3908 -20.3701 -19.8143 -19.7959 -12.9644 -12.9203 -12.8215 -12.8038
   -11.6372 -11.6242 -11.5973 -11.0891 -11.0653 -11.0305 -10.5602 -10.5461
   -10.5388 -10.5217 -10.5069 -10.4935 -10.4118 -10.3004 -10.2901 -10.1522
    -9.9955  -9.9549  -9.8900  -9.8048  -9.7040  -9.6489  -9.6452  -9.5706
    -9.3400  -9.2730  -9.1861  -9.0473  -9.0206  -8.7654  -8.7323  -8.7020
    -8.6246  -8.5745  -8.5501  -8.4633  -8.3899  -8.2975  -8.2549  -8.2305
    -8.0550  -8.0306  -7.8916  -7.8771  -7.8099  -7.6916  -7.6309  -7.6186
    -7.5783  -7.5529  -7.5149  -7.4270  -7.4146  -7.2755  -7.0716  -6.9785
    -6.7589  -6.7467  -6.6938  -6.5974  -6.4568  -6.3481  -6.3094  -6.2772
    -6.1919  -6.1674  -6.1055  -5.9528  -5.8642  -5.7840  -5.7639  -5.5973
    -5.5790  -5.4893  -5.4236  -5.3304  -5.3150  -5.2909  -5.0451  -4.9961
    -4.3965  -4.3834  -4.3076  -4.2616  -4.2393  -4.2166  -4.1824  -4.1391
    -4.0945  -4.0682  -4.0387  -4.0344  -3.9803  -3.9761  -3.8871  -3.8806
    -3.8606  -3.8557  -3.8039  -3.6908  -3.6518  -3.5977  -3.5198  -3.5152
    -3.3700  -3.3441  -3.1959  -3.1614  -2.8771  -2.8259  -2.5852  -2.4691
    -2.3694  -2.3510  -2.1912  -2.1583  -1.8766  -1.5728  -1.3761  -1.2474
    -1.2013  -1.0912  -0.9850  -0.7061  -0.4874  -0.4156  -0.1922  -0.0796
     0.0296   0.3963   0.4419   0.4564   0.4774   0.5624   0.8900   1.0904
     1.2871   1.3746   1.4190   1.5113

     the Fermi energy is    -3.5094 ev

!    total energy              =   -3434.66393289 Ry
     estimated scf accuracy    <          5.9E-11 Ry
     smearing contrib. (-TS)   =       0.06567831 Ry
     internal energy E=F+TS    =   -3434.72961120 Ry

     The total energy is F=E-TS. E is the sum of the following terms:
     one-electron contribution =  -24190.25761955 Ry
     hartree contribution      =   12086.13271439 Ry
     xc contribution           =    -447.05270654 Ry
     ewald contribution        =    9198.79560155 Ry
     one-center paw contrib.   =    -266.57200850 Ry
     electrostatic embedding   =      -0.14452630 Ry
     cavitation energy         =       0.02098997 Ry
     PV energy                 =      -0.08349686 Ry
     correction to one-el term =     184.43144065 Ry

     WARNING: you are using the parabolic pbc correction;
              the potential shift above must be added to 
              band and Fermi energies.

     convergence has been achieved in  48 iterations

     negative rho (up, down):  1.168E-04 0.000E+00

     Forces acting on atoms (cartesian axes, Ry/au):

     atom    1 type  1   force =     0.05472954    0.00000000   -0.05451470
     atom    2 type  1   force =    -0.00603140    0.00000000    0.13187621
     atom    3 type  1   force =    -0.00012703    0.00000000    0.08669901
     atom    4 type  1   force =    -0.00013760    0.00000000   -0.15341171
     atom    5 type  2   force =    -0.13250014    0.00000000    0.03664316
     atom    6 type  2   force =     0.13349317    0.00000000    0.03856396
     atom    7 type  1   force =    -0.00050729    0.06097888    0.01091662
     atom    8 type  1   force =     0.00089645    0.06267890    0.00683177
     atom    9 type  2   force =     0.01917783    0.00000000   -0.03542921
     atom   10 type  2   force =    -0.00064803    0.00000000   -0.12286001
     atom   11 type  1   force =    -0.00050729   -0.06097888    0.01091662
     atom   12 type  1   force =     0.00089645   -0.06267890    0.00683177
     atom   13 type  1   force =     0.00034965    0.00000000   -0.02738057
     atom   14 type  1   force =     0.00093862    0.00000000    0.01007358
     atom   15 type  1   force =     0.00035119    0.00000000   -0.00568807
     atom   16 type  1   force =     0.00081474    0.00000000   -0.00533196
     atom   17 type  2   force =     0.00026812    0.00000000    0.00000000
     atom   18 type  2   force =    -0.00018064    0.00000000    0.00000000
     atom   19 type  1   force =    -0.00033243   -0.07293538    0.00000000
     atom   20 type  1   force =     0.00014182   -0.07218973    0.00000000
     atom   21 type  2   force =    -0.00802453    0.00000000    0.00000000
     atom   22 type  2   force =     0.00515037    0.00000000    0.00000000
     atom   23 type  1   force =    -0.00033243    0.07293538    0.00000000
     atom   24 type  1   force =     0.00014182    0.07218973    0.00000000
     atom   25 type  1   force =     0.00035119    0.00000000    0.00568807
     atom   26 type  1   force =     0.00081474    0.00000000    0.00533196
     atom   27 type  1   force =     0.00034965    0.00000000    0.02738057
     atom   28 type  1   force =     0.00093862    0.00000000   -0.01007358
     atom   29 type  2   force =    -0.13250014    0.00000000   -0.03664316
     atom   30 type  2   force =     0.13349317    0.00000000   -0.03856396
     atom   31 type  1   force =    -0.00050729    0.06097888   -0.01091662
     atom   32 type  1   force =     0.00089645    0.06267890   -0.00683177
     atom   33 type  2   force =     0.01917783    0.00000000    0.03542921
     atom   34 type  2   force =    -0.00064803    0.00000000    0.12286001
     atom   35 type  1   force =    -0.00050729   -0.06097888   -0.01091662
     atom   36 type  1   force =     0.00089645   -0.06267890   -0.00683177
     atom   37 type  1   force =    -0.00012703    0.00000000   -0.08669901
     atom   38 type  1   force =    -0.00013760    0.00000000    0.15341171
     atom   39 type  1   force =     0.05472954    0.00000000    0.05451470
     atom   40 type  1   force =    -0.00603140    0.00000000   -0.13187621
     atom   41 type  3   force =    -0.07024870    0.00000000    0.11554393
     atom   42 type  3   force =    -0.07024870    0.00000000   -0.11554393
     atom   43 type  3   force =     0.00032190    0.04564414    0.04234746
     atom   44 type  3   force =     0.00032190    0.04564414   -0.04234746
     atom   45 type  3   force =     0.00032190   -0.04564414    0.04234746
     atom   46 type  3   force =     0.00032190   -0.04564414   -0.04234746
     The non-local contrib.  to forces
     atom    1 type  1   force =     1.52157898    0.00000000   -0.24705243
     atom    2 type  1   force =    -0.04558766    0.00000000    0.99307673
     atom    3 type  1   force =     0.00239994    0.00000000    1.10802716
     atom    4 type  1   force =    -0.00165977    0.00000000   -1.63173500
     atom    5 type  2   force =    -0.00135577    0.00000000   -0.01675772
     atom    6 type  2   force =    -0.00079057    0.00000000   -0.01927703
     atom    7 type  1   force =     0.05010256   -0.07154028    0.03367860
     atom    8 type  1   force =    -0.05955161   -0.07527276    0.03613251
     atom    9 type  2   force =    -0.01204150    0.00000000    0.05188476
     atom   10 type  2   force =    -0.00047501    0.00000000   -0.00565684
     atom   11 type  1   force =     0.05010256    0.07154028    0.03367860
     atom   12 type  1   force =    -0.05955161    0.07527276    0.03613251
     atom   13 type  1   force =     0.00008245    0.00000000   -0.09631143
     atom   14 type  1   force =     0.00005723    0.00000000    0.00127063
     atom   15 type  1   force =    -0.00349392    0.00000000    0.00599145
     atom   16 type  1   force =    -0.00365934    0.00000000    0.06714605
     atom   17 type  2   force =    -0.00032005    0.00000000    0.00000000
     atom   18 type  2   force =    -0.00008574    0.00000000    0.00000000
     atom   19 type  1   force =     0.00083876    0.06675815    0.00000000
     atom   20 type  1   force =    -0.00071407    0.06630892    0.00000000
     atom   21 type  2   force =     0.00239106    0.00000000    0.00000000
     atom   22 type  2   force =     0.00880684    0.00000000    0.00000000
     atom   23 type  1   force =     0.00083876   -0.06675815    0.00000000
     atom   24 type  1   force =    -0.00071407   -0.06630892    0.00000000
     atom   25 type  1   force =    -0.00349392    0.00000000   -0.00599145
     atom   26 type  1   force =    -0.00365934    0.00000000   -0.06714605
     atom   27 type  1   force =     0.00008245    0.00000000    0.09631143
     atom   28 type  1   force =     0.00005723    0.00000000   -0.00127063
     atom   29 type  2   force =    -0.00135577    0.00000000    0.01675772
     atom   30 type  2   force =    -0.00079057    0.00000000    0.01927703
     atom   31 type  1   force =     0.05010256   -0.07154028   -0.03367860
     atom   32 type  1   force =    -0.05955161   -0.07527276   -0.03613251
     atom   33 type  2   force =    -0.01204150    0.00000000   -0.05188476
     atom   34 type  2   force =    -0.00047501    0.00000000    0.00565684
     atom   35 type  1   force =     0.05010256    0.07154028   -0.03367860
     atom   36 type  1   force =    -0.05955161    0.07527276   -0.03613251
     atom   37 type  1   force =     0.00239994    0.00000000   -1.10802716
     atom   38 type  1   force =    -0.00165977    0.00000000    1.63173500
     atom   39 type  1   force =     1.52157898    0.00000000    0.24705243
     atom   40 type  1   force =    -0.04558766    0.00000000   -0.99307673
     atom   41 type  3   force =    -0.05170349    0.00000000    0.05498908
     atom   42 type  3   force =    -0.05170349    0.00000000   -0.05498908
     atom   43 type  3   force =    -0.00005895   -0.06502362    0.07644759
     atom   44 type  3   force =    -0.00005895   -0.06502362   -0.07644759
     atom   45 type  3   force =    -0.00005895    0.06502362    0.07644759
     atom   46 type  3   force =    -0.00005895    0.06502362   -0.07644759
     The ionic contribution  to forces
     atom    1 type  1   force =    -2.04237481    0.00000011  -92.08830201
     atom    2 type  1   force =     0.29498279    0.00000011  -93.94732714
     atom    3 type  1   force =    -0.08183742   -0.00000022  -92.19674533
     atom    4 type  1   force =     0.06862963   -0.00000022  -87.61704300
     atom    5 type  2   force =    -1.02771046   -0.00000201 -167.44513008
     atom    6 type  2   force =     1.03554293   -0.00000201 -167.58205877
     atom    7 type  1   force =    -0.19456650    0.98957745  -62.64993605
     atom    8 type  1   force =     0.20764227    1.03139004  -62.76854409
     atom    9 type  2   force =    -0.22213636    0.00000254 -166.72953013
     atom   10 type  2   force =     0.16601166    0.00000254 -166.47304663
     atom   11 type  1   force =    -0.19456650   -0.98957702  -62.64993414
     atom   12 type  1   force =     0.20764227   -1.03138961  -62.76854218
     atom   13 type  1   force =    -0.01282048   -0.00000169  -36.83291622
     atom   14 type  1   force =     0.01239474   -0.00000169  -36.61526569
     atom   15 type  1   force =    -0.00950252    0.00000878  -25.96554400
     atom   16 type  1   force =     0.00915651    0.00000878  -25.92100341
     atom   17 type  2   force =    -0.01100849    0.00001249   -0.00043162
     atom   18 type  2   force =     0.01093670    0.00001249   -0.00043477
     atom   19 type  1   force =    -0.02287720   -1.04253226   -0.00008444
     atom   20 type  1   force =     0.02291263   -1.04181019   -0.00008426
     atom   21 type  2   force =    -0.05155817    0.00012240   -0.00026650
     atom   22 type  2   force =     0.05170203    0.00012240   -0.00026591
     atom   23 type  1   force =    -0.02287721    1.04238151   -0.00008444
     atom   24 type  1   force =     0.02291265    1.04165944   -0.00008426
     atom   25 type  1   force =    -0.00950271    0.00000878   25.96536915
     atom   26 type  1   force =     0.00915668    0.00000878   25.92082763
     atom   27 type  1   force =    -0.01282072   -0.00000169   36.83319517
     atom   28 type  1   force =     0.01239495   -0.00000169   36.61553912
     atom   29 type  2   force =    -1.02773466   -0.00000201  167.44540330
     atom   30 type  2   force =     1.03556737   -0.00000201  167.58233368
     atom   31 type  1   force =    -0.19456974    0.98954862   62.65000288
     atom   32 type  1   force =     0.20764607    1.03136257   62.76861349
     atom   33 type  2   force =    -0.22214247    0.00000254  166.72967969
     atom   34 type  2   force =     0.16601517    0.00000254  166.47320130
     atom   35 type  1   force =    -0.19456974   -0.98954820   62.65000097
     atom   36 type  1   force =     0.20764607   -1.03136214   62.76861158
     atom   37 type  1   force =    -0.08183934   -0.00000022   92.19681476
     atom   38 type  1   force =     0.06863101   -0.00000022   87.61691360
     atom   39 type  1   force =    -2.04246430    0.00000011   92.08833562
     atom   40 type  1   force =     0.29498567    0.00000011   93.94740126
     atom   41 type  3   force =     1.74771951    0.00000001  -15.82335800
     atom   42 type  3   force =     1.74780795    0.00000001   15.82344990
     atom   43 type  3   force =     0.01786063    1.98284117  -17.17621331
     atom   44 type  3   force =     0.01786063    1.98305687   17.17634831
     atom   45 type  3   force =     0.01786063   -1.98284120  -17.17621329
     atom   46 type  3   force =     0.01786063   -1.98305690   17.17634828
     The local contribution  to forces
     atom    1 type  1   force =     0.49577618    0.00000000   92.22986036
     atom    2 type  1   force =    -0.18669567    0.00000000   93.03428039
     atom    3 type  1   force =     0.05835107    0.00000000   91.09420179
     atom    4 type  1   force =    -0.05042995   -0.00000000   89.29529175
     atom    5 type  2   force =     0.79975186    0.00000000  167.54988963
     atom    6 type  2   force =    -0.80295000    0.00000000  167.65801462
     atom    7 type  1   force =     0.11928808   -0.84559063   62.63056390
     atom    8 type  1   force =    -0.12181690   -0.87795360   62.72166502
     atom    9 type  2   force =     0.22218655    0.00000000  166.56390300
     atom   10 type  2   force =    -0.13719057    0.00000000  166.36190524
     atom   11 type  1   force =     0.11928808    0.84559063   62.63056390
     atom   12 type  1   force =    -0.12181690    0.87795360   62.72166502
     atom   13 type  1   force =     0.01057294   -0.00000000   36.89338425
     atom   14 type  1   force =    -0.00905397   -0.00000000   36.63727749
     atom   15 type  1   force =     0.01170123    0.00000000   25.94839302
     atom   16 type  1   force =    -0.00314211    0.00000000   25.85012710
     atom   17 type  2   force =     0.00954979    0.00000000   -0.00587631
     atom   18 type  2   force =    -0.00899116   -0.00000000   -0.00587197
     atom   19 type  1   force =     0.01923592    0.90271117   -0.00246846
     atom   20 type  1   force =    -0.01958145    0.90325034   -0.00246869
     atom   21 type  2   force =     0.03507566    0.00000000   -0.00605411
     atom   22 type  2   force =    -0.04928334    0.00000000   -0.00605258
     atom   23 type  1   force =     0.01923594   -0.90304951   -0.00246846
     atom   24 type  1   force =    -0.01958147   -0.90358866   -0.00246869
     atom   25 type  1   force =     0.01170053    0.00000000  -25.95015046
     atom   26 type  1   force =    -0.00314263    0.00000000  -25.85188177
     atom   27 type  1   force =     0.01057311    0.00000000  -36.89514518
     atom   28 type  1   force =    -0.00905409   -0.00000000  -36.63903373
     atom   29 type  2   force =     0.79976772   -0.00000000 -167.55596584
     atom   30 type  2   force =    -0.80296611   -0.00000000 -167.66409030
     atom   31 type  1   force =     0.11928944   -0.84558908  -62.63303245
     atom   32 type  1   force =    -0.12181780   -0.87795219  -62.72413608
     atom   33 type  2   force =     0.22218633   -0.00000000 -166.56976399
     atom   34 type  2   force =    -0.13719458    0.00000000 -166.36777481
     atom   35 type  1   force =     0.11928944    0.84558908  -62.63303245
     atom   36 type  1   force =    -0.12181780    0.87795219  -62.72413608
     atom   37 type  1   force =     0.05835242    0.00000000  -91.09790996
     atom   38 type  1   force =    -0.05043079   -0.00000000  -89.29901345
     atom   39 type  1   force =     0.49580562    0.00000000  -92.23137466
     atom   40 type  1   force =    -0.18669617    0.00000000  -93.03578276
     atom   41 type  3   force =    -1.79033297    0.00000000   15.90580937
     atom   42 type  3   force =    -1.79033297    0.00000000  -15.90580937
     atom   43 type  3   force =    -0.01295521   -1.84572791   17.21141149
     atom   44 type  3   force =    -0.01295521   -1.84572791  -17.21141149
     atom   45 type  3   force =    -0.01295521    1.84572791   17.21141149
     atom   46 type  3   force =    -0.01295521    1.84572791  -17.21141149
     The core correction contribution to forces
     atom    1 type  1   force =    -0.01724098   -0.00000000    0.00273268
     atom    2 type  1   force =     0.00054883    0.00000000   -0.01078785
     atom    3 type  1   force =    -0.00002940    0.00000000   -0.01240392
     atom    4 type  1   force =     0.00001732   -0.00000000    0.01521731
     atom    5 type  2   force =     0.00000000    0.00000000    0.00000000
     atom    6 type  2   force =     0.00000000    0.00000000    0.00000000
     atom    7 type  1   force =    -0.00055191   -0.00063055   -0.00038743
     atom    8 type  1   force =     0.00069043   -0.00056864   -0.00042254
     atom    9 type  2   force =     0.00000000    0.00000000    0.00000000
     atom   10 type  2   force =     0.00000000    0.00000000    0.00000000
     atom   11 type  1   force =    -0.00055191    0.00063055   -0.00038743
     atom   12 type  1   force =     0.00069043    0.00056864   -0.00042254
     atom   13 type  1   force =    -0.00000021    0.00000000    0.00129603
     atom   14 type  1   force =     0.00000046   -0.00000000   -0.00017242
     atom   15 type  1   force =     0.00004293    0.00000000   -0.00009591
     atom   16 type  1   force =     0.00004676    0.00000000   -0.00101742
     atom   17 type  2   force =     0.00000000    0.00000000    0.00000000
     atom   18 type  2   force =     0.00000000    0.00000000    0.00000000
     atom   19 type  1   force =    -0.00000972    0.00065800   -0.00000218
     atom   20 type  1   force =     0.00000759    0.00066959   -0.00000218
     atom   21 type  2   force =     0.00000000    0.00000000    0.00000000
     atom   22 type  2   force =     0.00000000    0.00000000    0.00000000
     atom   23 type  1   force =    -0.00000971   -0.00065847   -0.00000218
     atom   24 type  1   force =     0.00000759   -0.00067006   -0.00000218
     atom   25 type  1   force =     0.00004290    0.00000000    0.00009342
     atom   26 type  1   force =     0.00004674   -0.00000000    0.00101510
     atom   27 type  1   force =    -0.00000022   -0.00000000   -0.00129862
     atom   28 type  1   force =     0.00000045    0.00000000    0.00017004
     atom   29 type  2   force =     0.00000000    0.00000000    0.00000000
     atom   30 type  2   force =     0.00000000    0.00000000    0.00000000
     atom   31 type  1   force =    -0.00055196   -0.00063051    0.00038532
     atom   32 type  1   force =     0.00069051   -0.00056856    0.00042041
     atom   33 type  2   force =     0.00000000    0.00000000    0.00000000
     atom   34 type  2   force =     0.00000000    0.00000000    0.00000000
     atom   35 type  1   force =    -0.00055196    0.00063051    0.00038532
     atom   36 type  1   force =     0.00069051    0.00056856    0.00042041
     atom   37 type  1   force =    -0.00002940   -0.00000000    0.01239958
     atom   38 type  1   force =     0.00001733    0.00000000   -0.01522205
     atom   39 type  1   force =    -0.01724232    0.00000000   -0.00273574
     atom   40 type  1   force =     0.00054888   -0.00000000    0.01078527
     atom   41 type  3   force =     0.00000000    0.00000000    0.00000000
     atom   42 type  3   force =     0.00000000    0.00000000    0.00000000
     atom   43 type  3   force =     0.00000000    0.00000000    0.00000000
     atom   44 type  3   force =     0.00000000    0.00000000    0.00000000
     atom   45 type  3   force =     0.00000000    0.00000000    0.00000000
     atom   46 type  3   force =     0.00000000    0.00000000    0.00000000
     The Hubbard contrib.    to forces
     atom    1 type  1   force =     0.00000000    0.00000000    0.00000000
     atom    2 type  1   force =     0.00000000    0.00000000    0.00000000
     atom    3 type  1   force =     0.00000000    0.00000000    0.00000000
     atom    4 type  1   force =     0.00000000    0.00000000    0.00000000
     atom    5 type  2   force =     0.00000000    0.00000000    0.00000000
     atom    6 type  2   force =     0.00000000    0.00000000    0.00000000
     atom    7 type  1   force =     0.00000000    0.00000000    0.00000000
     atom    8 type  1   force =     0.00000000    0.00000000    0.00000000
     atom    9 type  2   force =     0.00000000    0.00000000    0.00000000
     atom   10 type  2   force =     0.00000000    0.00000000    0.00000000
     atom   11 type  1   force =     0.00000000    0.00000000    0.00000000
     atom   12 type  1   force =     0.00000000    0.00000000    0.00000000
     atom   13 type  1   force =     0.00000000    0.00000000    0.00000000
     atom   14 type  1   force =     0.00000000    0.00000000    0.00000000
     atom   15 type  1   force =     0.00000000    0.00000000    0.00000000
     atom   16 type  1   force =     0.00000000    0.00000000    0.00000000
     atom   17 type  2   force =     0.00000000    0.00000000    0.00000000
     atom   18 type  2   force =     0.00000000    0.00000000    0.00000000
     atom   19 type  1   force =     0.00000000    0.00000000    0.00000000
     atom   20 type  1   force =     0.00000000    0.00000000    0.00000000
     atom   21 type  2   force =     0.00000000    0.00000000    0.00000000
     atom   22 type  2   force =     0.00000000    0.00000000    0.00000000
     atom   23 type  1   force =     0.00000000    0.00000000    0.00000000
     atom   24 type  1   force =     0.00000000    0.00000000    0.00000000
     atom   25 type  1   force =     0.00000000    0.00000000    0.00000000
     atom   26 type  1   force =     0.00000000    0.00000000    0.00000000
     atom   27 type  1   force =     0.00000000    0.00000000    0.00000000
     atom   28 type  1   force =     0.00000000    0.00000000    0.00000000
     atom   29 type  2   force =     0.00000000    0.00000000    0.00000000
     atom   30 type  2   force =     0.00000000    0.00000000    0.00000000
     atom   31 type  1   force =     0.00000000    0.00000000    0.00000000
     atom   32 type  1   force =     0.00000000    0.00000000    0.00000000
     atom   33 type  2   force =     0.00000000    0.00000000    0.00000000
     atom   34 type  2   force =     0.00000000    0.00000000    0.00000000
     atom   35 type  1   force =     0.00000000    0.00000000    0.00000000
     atom   36 type  1   force =     0.00000000    0.00000000    0.00000000
     atom   37 type  1   force =     0.00000000    0.00000000    0.00000000
     atom   38 type  1   force =     0.00000000    0.00000000    0.00000000
     atom   39 type  1   force =     0.00000000    0.00000000    0.00000000
     atom   40 type  1   force =     0.00000000    0.00000000    0.00000000
     atom   41 type  3   force =     0.00000000    0.00000000    0.00000000
     atom   42 type  3   force =     0.00000000    0.00000000    0.00000000
     atom   43 type  3   force =     0.00000000    0.00000000    0.00000000
     atom   44 type  3   force =     0.00000000    0.00000000    0.00000000
     atom   45 type  3   force =     0.00000000    0.00000000    0.00000000
     atom   46 type  3   force =     0.00000000    0.00000000    0.00000000
     The SCF correction term to forces
     atom    1 type  1   force =    -0.00000256   -0.00000000   -0.00000135
     atom    2 type  1   force =     0.00000239   -0.00000000   -0.00000497
     atom    3 type  1   force =    -0.00000082    0.00000001   -0.00000266
     atom    4 type  1   force =     0.00000043    0.00000001   -0.00000112
     atom    5 type  2   force =    -0.00000393    0.00000003    0.00000029
     atom    6 type  2   force =     0.00000409    0.00000003   -0.00000124
     atom    7 type  1   force =    -0.00000335   -0.00000198    0.00000037
     atom    8 type  1   force =     0.00000337   -0.00000079   -0.00000112
     atom    9 type  2   force =    -0.00000333   -0.00000003   -0.00000421
     atom   10 type  2   force =     0.00000328   -0.00000003    0.00000068
     atom   11 type  1   force =    -0.00000335    0.00000198    0.00000037
     atom   12 type  1   force =     0.00000337    0.00000078   -0.00000112
     atom   13 type  1   force =    -0.00000003    0.00000001   -0.00000033
     atom   14 type  1   force =     0.00000005    0.00000001    0.00000488
     atom   15 type  1   force =     0.00000034   -0.00000001    0.00000164
     atom   16 type  1   force =    -0.00000034   -0.00000001    0.00000521
     atom   17 type  2   force =    -0.00000007    0.00000003    0.00001418
     atom   18 type  2   force =     0.00000007    0.00000003    0.00001416
     atom   19 type  1   force =     0.00000343   -0.00000092    0.00000525
     atom   20 type  1   force =    -0.00000343   -0.00000199    0.00000525
     atom   21 type  2   force =     0.00000121   -0.00000003    0.00001402
     atom   22 type  2   force =    -0.00000121   -0.00000003    0.00001403
     atom   23 type  1   force =     0.00000343    0.00000093    0.00000525
     atom   24 type  1   force =    -0.00000343    0.00000200    0.00000525
     atom   25 type  1   force =     0.00000033   -0.00000001    0.00000748
     atom   26 type  1   force =    -0.00000034   -0.00000001    0.00000389
     atom   27 type  1   force =    -0.00000004    0.00000001    0.00000726
     atom   28 type  1   force =     0.00000007    0.00000001    0.00000204
     atom   29 type  2   force =    -0.00000400    0.00000003    0.00000435
     atom   30 type  2   force =     0.00000415    0.00000003    0.00000588
     atom   31 type  1   force =    -0.00000338   -0.00000199    0.00000145
     atom   32 type  1   force =     0.00000340   -0.00000080    0.00000294
     atom   33 type  2   force =    -0.00000335   -0.00000003    0.00000901
     atom   34 type  2   force =     0.00000331   -0.00000003    0.00000412
     atom   35 type  1   force =    -0.00000338    0.00000198    0.00000145
     atom   36 type  1   force =     0.00000340    0.00000079    0.00000294
     atom   37 type  1   force =    -0.00000083    0.00000001    0.00000031
     atom   38 type  1   force =     0.00000044    0.00000001   -0.00000119
     atom   39 type  1   force =    -0.00000255   -0.00000000   -0.00000204
     atom   40 type  1   force =     0.00000240   -0.00000000    0.00000159
     atom   41 type  3   force =    -0.00000045   -0.00000000   -0.00000032
     atom   42 type  3   force =    -0.00000047   -0.00000000   -0.00000029
     atom   43 type  3   force =     0.00000014   -0.00000002   -0.00000049
     atom   44 type  3   force =     0.00000014   -0.00000003   -0.00000005
     atom   45 type  3   force =     0.00000014    0.00000002   -0.00000049
     atom   46 type  3   force =     0.00000014    0.00000004   -0.00000004

     Total force =     0.570138     Total SCF correction =     0.000040

     BFGS Geometry Optimization
     Energy error            =      0.0E+00 Ry
     Gradient error          =      1.5E-01 Ry/Bohr

     number of scf cycles    =   1
     number of bfgs steps    =   0

     energy             new  =   -3434.6639328920 Ry

     new trust radius        =       0.1534117734 bohr
     new conv_thr            =            1.0E-10 Ry


ATOMIC_POSITIONS (crystal)
O             0.0044174786        0.5000000000        0.2595056097
O             0.4995131777        0.5000000000        0.2639620243
O            -0.0000102532        0.0000000000        0.2962388838
O             0.4999888937        0.0000000000        0.2904980841
Ru            0.2393052896        0.0000000000        0.3525341002
Ru            0.7607748621        0.0000000000        0.3525800246
O             0.2499590542        0.3116549603        0.3519190052
O             0.7500723566        0.3118066200        0.3518213406
Ru            0.0015479333        0.5000000000        0.3508109242
Ru            0.4999476947        0.5000000000        0.3487205439
O             0.2499590542        0.6883450397        0.3519190052
O             0.7500723566        0.6881933800        0.3518213406
O             0.0000282219        0.0000000000        0.4084963589
O             0.5000757604        0.0000000000        0.4093918489
O             0.0000283458        0.5000000000        0.4423720041
O             0.5000657612        0.5000000000        0.4423805183
Ru            0.0000216414        0.0000000000        0.5000010000
Ru            0.4999854198        0.0000000000        0.5000010000
O             0.2499731682        0.1872783944        0.5000010000
O             0.7500114469        0.1873449137        0.5000010000
Ru            0.2493523020        0.5000000000        0.5000010000
Ru            0.7504157104        0.5000000000        0.5000010000
O             0.2499731682        0.8127226056        0.5000010000
O             0.7500114469        0.8126560863        0.5000010000
O             0.0000283458        0.5000000000        0.5576289959
O             0.5000657612        0.5000000000        0.5576204817
O             0.0000282219        0.0000000000        0.5915046411
O             0.5000757604        0.0000000000        0.5906091511
Ru            0.2393052896        0.0000000000        0.6474668998
Ru            0.7607748621        0.0000000000        0.6474209754
O             0.2499590542        0.3116549603        0.6480819948
O             0.7500723566        0.3118066200        0.6481796594
Ru            0.0015479333        0.5000000000        0.6491900758
Ru            0.4999476947        0.5000000000        0.6512804561
O             0.2499590542        0.6883450397        0.6480819948
O             0.7500723566        0.6881933800        0.6481796594
O            -0.0000102532        0.0000000000        0.7037631162
O             0.4999888937        0.0000000000        0.7095039159
O             0.0044174786        0.5000000000        0.7404953903
O             0.4995131777        0.5000000000        0.7360389757
H             0.1119648963        0.5000000000        0.2296855364
H             0.1119648963        0.5000000000        0.7703144636
H             0.5000259823        0.1182879391        0.2612914840
H             0.5000259823        0.1182879391        0.7387085160
H             0.5000259823        0.8817120609        0.2612914840
H             0.5000259823        0.8817120609        0.7387085160



     Writing config-only to output data dir /storage/home/mgm6007/ixd4/Maria/Strain1_Files/RuO2-110-0-035/RuO2-110-0-035.save/
     NEW-OLD atomic charge density approx. for the potential

     Check: negative core charge=   -0.000001

     negative rho (up, down):  3.460E-04 0.000E+00

     add environment contribution to local potential
     Polarization accuracy = 5.2E-12, # of iterations =  48

     total cpu time spent up to now is    10964.3 secs

     per-process dynamical memory:   203.1 Mb

     Self-consistent Calculation

     iteration #  1     ecut=    50.00 Ry     beta= 0.70
     Davidson diagonalization with overlap
     ethr =  1.00E-06,  avg # of iterations = 10.0

     negative rho (up, down):  2.352E-06 0.000E+00

     total cpu time spent up to now is    11122.4 secs

     total energy              =   -3434.83251487 Ry
     estimated scf accuracy    <       0.22478345 Ry
     electrostatic embedding   =      -0.15392981 Ry
     cavitation energy         =       0.02081667 Ry
     PV energy                 =      -0.08289895 Ry
     correction to one-el term =     184.12111178 Ry

     iteration #  2     ecut=    50.00 Ry     beta= 0.70
     Davidson diagonalization with overlap
     ethr =  6.14E-05,  avg # of iterations =  2.0

     negative rho (up, down):  8.425E-06 0.000E+00

     total cpu time spent up to now is    11284.1 secs

     total energy              =   -3434.84762593 Ry
     estimated scf accuracy    <       0.54836555 Ry
     electrostatic embedding   =      -0.15069079 Ry
     cavitation energy         =       0.02084119 Ry
     PV energy                 =      -0.08298568 Ry
     correction to one-el term =     184.11204092 Ry

     iteration #  3     ecut=    50.00 Ry     beta= 0.70
     Davidson diagonalization with overlap
     ethr =  6.14E-05,  avg # of iterations =  1.0

     negative rho (up, down):  2.780E-06 0.000E+00

     total cpu time spent up to now is    11501.5 secs

     total energy              =   -3434.87543365 Ry
     estimated scf accuracy    <       0.11090494 Ry
     electrostatic embedding   =      -0.14956166 Ry
     cavitation energy         =       0.02086003 Ry
     PV energy                 =      -0.08296323 Ry
     correction to one-el term =     184.10960227 Ry

     iteration #  4     ecut=    50.00 Ry     beta= 0.70
     Davidson diagonalization with overlap
     ethr =  3.03E-05,  avg # of iterations =  1.0

     negative rho (up, down):  2.414E-06 0.000E+00

     add environment contribution to local potential
     Polarization accuracy = 4.6E-12, # of iterations =  44

     total cpu time spent up to now is    11745.1 secs

     total energy              =   -3434.88024605 Ry
     estimated scf accuracy    <       0.00914594 Ry
     electrostatic embedding   =      -0.14806244 Ry
     cavitation energy         =       0.02087145 Ry
     PV energy                 =      -0.08299796 Ry
     correction to one-el term =     184.10545550 Ry

     iteration #  5     ecut=    50.00 Ry     beta= 0.70
     Davidson diagonalization with overlap
     ethr =  2.50E-06,  avg # of iterations =  2.0

     negative rho (up, down):  2.862E-06 0.000E+00

     add environment contribution to local potential
     Polarization accuracy = 5.2E-12, # of iterations =  45

     total cpu time spent up to now is    11982.5 secs

     total energy              =   -3434.87325296 Ry
     estimated scf accuracy    <       0.01916603 Ry
     electrostatic embedding   =      -0.13410372 Ry
     cavitation energy         =       0.02091716 Ry
     PV energy                 =      -0.08296641 Ry
     correction to one-el term =     184.29283836 Ry

     iteration #  6     ecut=    50.00 Ry     beta= 0.70
     Davidson diagonalization with overlap
     ethr =  2.50E-06,  avg # of iterations =  2.0

     negative rho (up, down):  6.703E-06 0.000E+00

     add environment contribution to local potential
     Polarization accuracy = 7.1E-12, # of iterations =  45

     total cpu time spent up to now is    12124.9 secs

     total energy              =   -3434.87410267 Ry
     estimated scf accuracy    <       0.00137485 Ry
     electrostatic embedding   =      -0.13029257 Ry
     cavitation energy         =       0.02094716 Ry
     PV energy                 =      -0.08294956 Ry
     correction to one-el term =     184.50947420 Ry

     iteration #  7     ecut=    50.00 Ry     beta= 0.70
     Davidson diagonalization with overlap
     ethr =  3.76E-07,  avg # of iterations =  2.0

     negative rho (up, down):  1.797E-05 0.000E+00

     add environment contribution to local potential
     Polarization accuracy = 8.0E-12, # of iterations =  45

     total cpu time spent up to now is    12346.3 secs

     total energy              =   -3434.87467286 Ry
     estimated scf accuracy    <       0.00071757 Ry
     electrostatic embedding   =      -0.12618222 Ry
     cavitation energy         =       0.02096939 Ry
     PV energy                 =      -0.08293481 Ry
[...]
     atom    5 type  2   force =    -7.13736603   -0.00000000  172.27681548
     atom    6 type  2   force =     6.92309586    0.00000000  173.32845365
     atom    7 type  1   force =    -1.36882538    0.61610389   62.70021551
     atom    8 type  1   force =     0.96299649    0.59889473   65.31501607
     atom    9 type  2   force =     1.49839527   -0.00000000  171.70879940
     atom   10 type  2   force =    -1.23568643   -0.00000000  172.29618108
     atom   11 type  1   force =    -1.36882538   -0.61610389   62.70021551
     atom   12 type  1   force =     0.96299649   -0.59889473   65.31501607
     atom   13 type  1   force =     0.24385707    0.00000000   37.20224304
     atom   14 type  1   force =    -0.02079758    0.00000000   40.63149260
     atom   15 type  1   force =     0.27726259   -0.00000000   25.64003032
     atom   16 type  1   force =    -0.24046544   -0.00000000   26.53771293
     atom   17 type  2   force =    -0.08995979    0.00000000   -0.00582578
     atom   18 type  2   force =    -0.20906795   -0.00000000   -0.00592295
     atom   19 type  1   force =    -0.38006970   -0.55989515   -0.00246917
     atom   20 type  1   force =     0.39453786   -0.65521024   -0.00247565
     atom   21 type  2   force =    -1.06203514   -0.00000000   -0.00605022
     atom   22 type  2   force =     1.65075545   -0.00000000   -0.00606979
     atom   23 type  1   force =    -0.38006613    0.55954867   -0.00246917
     atom   24 type  1   force =     0.39453912    0.65486422   -0.00247565
     atom   25 type  1   force =     0.27727286   -0.00000000  -25.64179856
     atom   26 type  1   force =    -0.24045888   -0.00000000  -26.53949309
     atom   27 type  1   force =     0.24385780    0.00000000  -37.20398939
     atom   28 type  1   force =    -0.02078945    0.00000000  -40.63331596
     atom   29 type  2   force =    -7.13739370   -0.00000000 -172.28290563
     atom   30 type  2   force =     6.92312528    0.00000000 -173.33453955
     atom   31 type  1   force =    -1.36881427    0.61612518  -62.70267491
     atom   32 type  1   force =     0.96298179    0.59891166  -65.31749486
     atom   33 type  2   force =     1.49841004   -0.00000000 -171.71467091
     atom   34 type  2   force =    -1.23571246   -0.00000000 -172.30194604
     atom   35 type  1   force =    -1.36881427   -0.61612518  -62.70267491
     atom   36 type  1   force =     0.96298179   -0.59891166  -65.31749486
     atom   37 type  1   force =     0.26887524   -0.00000000  -94.77344658
     atom   38 type  1   force =    -0.22644120   -0.00000000  -90.99041495
     atom   39 type  1   force =     1.72017303   -0.00000000  -96.52163803
     atom   40 type  1   force =    -0.23233225   -0.00000000  -98.91477572
     atom   41 type  3   force =    -2.65524270   -0.00000000   16.35569665
     atom   42 type  3   force =    -2.65524270   -0.00000000  -16.35569665
     atom   43 type  3   force =    -0.05627510   -2.15148836   17.09298840
     atom   44 type  3   force =    -0.05627510   -2.15148836  -17.09298840
     atom   45 type  3   force =    -0.05627510    2.15148836   17.09298840
     atom   46 type  3   force =    -0.05627510    2.15148836  -17.09298840
     The core correction contribution to forces
     atom    1 type  1   force =    -0.01734613   -0.00000000   -0.00542123
     atom    2 type  1   force =    -0.00019466    0.00000000   -0.01006951
     atom    3 type  1   force =    -0.00007986    0.00000000   -0.01229577
     atom    4 type  1   force =     0.00010709   -0.00000000    0.01390532
     atom    5 type  2   force =     0.00000000    0.00000000    0.00000000
     atom    6 type  2   force =     0.00000000    0.00000000    0.00000000
     atom    7 type  1   force =     0.00014597    0.00037885    0.00082482
     atom    8 type  1   force =     0.00065818    0.00035758   -0.00011639
     atom    9 type  2   force =     0.00000000    0.00000000    0.00000000
     atom   10 type  2   force =     0.00000000    0.00000000    0.00000000
     atom   11 type  1   force =     0.00014597   -0.00037885    0.00082482
     atom   12 type  1   force =     0.00065818   -0.00035758   -0.00011639
     atom   13 type  1   force =    -0.00013699   -0.00000000    0.00245513
     atom   14 type  1   force =    -0.00017475    0.00000000   -0.00155535
     atom   15 type  1   force =    -0.00003485   -0.00000000   -0.00024862
     atom   16 type  1   force =    -0.00032233   -0.00000000   -0.00175384
     atom   17 type  2   force =     0.00000000    0.00000000    0.00000000
     atom   18 type  2   force =     0.00000000    0.00000000    0.00000000
     atom   19 type  1   force =     0.00032209   -0.00044134   -0.00000206
     atom   20 type  1   force =     0.00005494   -0.00036576   -0.00000207
     atom   21 type  2   force =     0.00000000    0.00000000    0.00000000
     atom   22 type  2   force =     0.00000000    0.00000000    0.00000000
     atom   23 type  1   force =     0.00032210    0.00044084   -0.00000206
     atom   24 type  1   force =     0.00005494    0.00036525   -0.00000207
     atom   25 type  1   force =    -0.00003487    0.00000000    0.00024645
     atom   26 type  1   force =    -0.00032226   -0.00000000    0.00175177
     atom   27 type  1   force =    -0.00013700    0.00000000   -0.00245750
     atom   28 type  1   force =    -0.00017476    0.00000000    0.00155304
     atom   29 type  2   force =     0.00000000    0.00000000    0.00000000
     atom   30 type  2   force =     0.00000000    0.00000000    0.00000000
     atom   31 type  1   force =     0.00014592    0.00037887   -0.00082667
     atom   32 type  1   force =     0.00065822    0.00035771    0.00011447
     atom   33 type  2   force =     0.00000000    0.00000000    0.00000000
     atom   34 type  2   force =     0.00000000    0.00000000    0.00000000
     atom   35 type  1   force =     0.00014592   -0.00037887   -0.00082667
     atom   36 type  1   force =     0.00065822   -0.00035771    0.00011447
     atom   37 type  1   force =    -0.00007976    0.00000000    0.01229198
     atom   38 type  1   force =     0.00010711   -0.00000000   -0.01390903
     atom   39 type  1   force =    -0.01734690    0.00000000    0.00541901
     atom   40 type  1   force =    -0.00019486    0.00000000    0.01006732
     atom   41 type  3   force =     0.00000000    0.00000000    0.00000000
     atom   42 type  3   force =     0.00000000    0.00000000    0.00000000
     atom   43 type  3   force =     0.00000000    0.00000000    0.00000000
     atom   44 type  3   force =     0.00000000    0.00000000    0.00000000
     atom   45 type  3   force =     0.00000000    0.00000000    0.00000000
     atom   46 type  3   force =     0.00000000    0.00000000    0.00000000
     The Hubbard contrib.    to forces
     atom    1 type  1   force =     0.00000000    0.00000000    0.00000000
     atom    2 type  1   force =     0.00000000    0.00000000    0.00000000
     atom    3 type  1   force =     0.00000000    0.00000000    0.00000000
     atom    4 type  1   force =     0.00000000    0.00000000    0.00000000
     atom    5 type  2   force =     0.00000000    0.00000000    0.00000000
     atom    6 type  2   force =     0.00000000    0.00000000    0.00000000
     atom    7 type  1   force =     0.00000000    0.00000000    0.00000000
     atom    8 type  1   force =     0.00000000    0.00000000    0.00000000
     atom    9 type  2   force =     0.00000000    0.00000000    0.00000000
     atom   10 type  2   force =     0.00000000    0.00000000    0.00000000
     atom   11 type  1   force =     0.00000000    0.00000000    0.00000000
     atom   12 type  1   force =     0.00000000    0.00000000    0.00000000
     atom   13 type  1   force =     0.00000000    0.00000000    0.00000000
     atom   14 type  1   force =     0.00000000    0.00000000    0.00000000
     atom   15 type  1   force =     0.00000000    0.00000000    0.00000000
     atom   16 type  1   force =     0.00000000    0.00000000    0.00000000
     atom   17 type  2   force =     0.00000000    0.00000000    0.00000000
     atom   18 type  2   force =     0.00000000    0.00000000    0.00000000
     atom   19 type  1   force =     0.00000000    0.00000000    0.00000000
     atom   20 type  1   force =     0.00000000    0.00000000    0.00000000
     atom   21 type  2   force =     0.00000000    0.00000000    0.00000000
     atom   22 type  2   force =     0.00000000    0.00000000    0.00000000
     atom   23 type  1   force =     0.00000000    0.00000000    0.00000000
     atom   24 type  1   force =     0.00000000    0.00000000    0.00000000
     atom   25 type  1   force =     0.00000000    0.00000000    0.00000000
     atom   26 type  1   force =     0.00000000    0.00000000    0.00000000
     atom   27 type  1   force =     0.00000000    0.00000000    0.00000000
     atom   28 type  1   force =     0.00000000    0.00000000    0.00000000
     atom   29 type  2   force =     0.00000000    0.00000000    0.00000000
     atom   30 type  2   force =     0.00000000    0.00000000    0.00000000
     atom   31 type  1   force =     0.00000000    0.00000000    0.00000000
     atom   32 type  1   force =     0.00000000    0.00000000    0.00000000
     atom   33 type  2   force =     0.00000000    0.00000000    0.00000000
     atom   34 type  2   force =     0.00000000    0.00000000    0.00000000
     atom   35 type  1   force =     0.00000000    0.00000000    0.00000000
     atom   36 type  1   force =     0.00000000    0.00000000    0.00000000
     atom   37 type  1   force =     0.00000000    0.00000000    0.00000000
     atom   38 type  1   force =     0.00000000    0.00000000    0.00000000
     atom   39 type  1   force =     0.00000000    0.00000000    0.00000000
     atom   40 type  1   force =     0.00000000    0.00000000    0.00000000
     atom   41 type  3   force =     0.00000000    0.00000000    0.00000000
     atom   42 type  3   force =     0.00000000    0.00000000    0.00000000
     atom   43 type  3   force =     0.00000000    0.00000000    0.00000000
     atom   44 type  3   force =     0.00000000    0.00000000    0.00000000
     atom   45 type  3   force =     0.00000000    0.00000000    0.00000000
     atom   46 type  3   force =     0.00000000    0.00000000    0.00000000
     The SCF correction term to forces
     atom    1 type  1   force =    -0.00000037   -0.00000000   -0.00000070
     atom    2 type  1   force =     0.00000056   -0.00000000   -0.00000077
     atom    3 type  1   force =    -0.00000060    0.00000000   -0.00000062
     atom    4 type  1   force =     0.00000089    0.00000000   -0.00000063
     atom    5 type  2   force =    -0.00000034    0.00000000   -0.00000030
     atom    6 type  2   force =     0.00000012    0.00000000   -0.00000131
     atom    7 type  1   force =     0.00000002    0.00000011   -0.00000015
     atom    8 type  1   force =    -0.00000007   -0.00000008   -0.00000054
     atom    9 type  2   force =    -0.00000090   -0.00000000   -0.00000110
     atom   10 type  2   force =     0.00000091   -0.00000000   -0.00000127
     atom   11 type  1   force =     0.00000002   -0.00000011   -0.00000015
     atom   12 type  1   force =    -0.00000007    0.00000008   -0.00000054
     atom   13 type  1   force =    -0.00000030    0.00000000    0.00000001
     atom   14 type  1   force =     0.00000019    0.00000000    0.00000015
     atom   15 type  1   force =    -0.00000039   -0.00000000    0.00000003
     atom   16 type  1   force =     0.00000028   -0.00000000    0.00000002
     atom   17 type  2   force =    -0.00000042    0.00000000   -0.00000000
     atom   18 type  2   force =     0.00000040    0.00000000   -0.00000000
     atom   19 type  1   force =     0.00000015   -0.00000026   -0.00000000
     atom   20 type  1   force =    -0.00000012   -0.00000002   -0.00000000
     atom   21 type  2   force =     0.00000015   -0.00000000   -0.00000000
     atom   22 type  2   force =    -0.00000015   -0.00000000   -0.00000000
     atom   23 type  1   force =     0.00000015    0.00000026   -0.00000000
     atom   24 type  1   force =    -0.00000012    0.00000002   -0.00000000
     atom   25 type  1   force =    -0.00000039    0.00000000   -0.00000003
     atom   26 type  1   force =     0.00000028   -0.00000000   -0.00000002
     atom   27 type  1   force =    -0.00000030    0.00000000   -0.00000001
     atom   28 type  1   force =     0.00000019    0.00000000   -0.00000015
     atom   29 type  2   force =    -0.00000035    0.00000000    0.00000031
     atom   30 type  2   force =     0.00000012    0.00000000    0.00000132
     atom   31 type  1   force =     0.00000002    0.00000011    0.00000016
     atom   32 type  1   force =    -0.00000007   -0.00000008    0.00000054
     atom   33 type  2   force =    -0.00000090   -0.00000000    0.00000110
     atom   34 type  2   force =     0.00000092   -0.00000000    0.00000128
     atom   35 type  1   force =     0.00000002   -0.00000011    0.00000016
     atom   36 type  1   force =    -0.00000007    0.00000008    0.00000054
     atom   37 type  1   force =    -0.00000060   -0.00000000    0.00000062
     atom   38 type  1   force =     0.00000089    0.00000000    0.00000063
     atom   39 type  1   force =    -0.00000037   -0.00000000    0.00000070
     atom   40 type  1   force =     0.00000056   -0.00000000    0.00000077
     atom   41 type  3   force =    -0.00000002   -0.00000000   -0.00000011
     atom   42 type  3   force =    -0.00000002   -0.00000000    0.00000011
     atom   43 type  3   force =     0.00000008    0.00000003   -0.00000010
     atom   44 type  3   force =     0.00000009    0.00000003    0.00000010
     atom   45 type  3   force =     0.00000008   -0.00000003   -0.00000010
     atom   46 type  3   force =     0.00000009   -0.00000003    0.00000010

     Total force =     0.000254     Total SCF correction =     0.000005
     Energy error            =      1.7E-07 Ry
     Gradient error          =      6.7E-05 Ry/Bohr

     bfgs converged in  50 scf cycles and  49 bfgs steps
     (criteria: energy <  1.0E-04 Ry, force <  1.0E-04 Ry/Bohr)

     End of BFGS Geometry Optimization

     Final energy             =   -3435.0232467300 Ry

     File /storage/home/mgm6007/ixd4/Maria/Strain1_Files/RuO2-110-0-035/RuO2-110-0-035.bfgs deleted, as requested
Begin final coordinates

ATOMIC_POSITIONS (crystal)
O             0.0135884821        0.5000000000        0.2691446893
O             0.4768831370        0.5000000000        0.2733838122
O             0.0001788247        0.0000000000        0.3069476471
O             0.4973395747        0.0000000000        0.2904372664
Ru            0.2346966345        0.0000000000        0.3583682684
Ru            0.7619162861        0.0000000000        0.3576439805
O             0.2480487940        0.3117299163        0.3594195107
O             0.7503129454        0.3133969586        0.3560372025
Ru            0.0008252027        0.5000000000        0.3568442225
Ru            0.5014065326        0.5000000000        0.3538595384
O             0.2480487940        0.6882700837        0.3594195107
O             0.7503129454        0.6866030414        0.3560372025
O            -0.0024477179        0.0000000000        0.4119509656
O             0.5013563434        0.0000000000        0.4106619412
O            -0.0051677203        0.5000000000        0.4456085153
O             0.4944526475        0.5000000000        0.4442681317
Ru           -0.0012122802        0.0000000000        0.5000010000
Ru            0.4993935276        0.0000000000        0.5000010000
O             0.2510900277        0.1860932270        0.5000010000
O             0.7488293701        0.1863089812        0.5000010000
Ru            0.2453517488        0.5000000000        0.5000010000
Ru            0.7448110113        0.5000000000        0.5000010000
O             0.2510900277        0.8139077730        0.5000010000
O             0.7488293701        0.8136920188        0.5000010000
O            -0.0051677203        0.5000000000        0.5543924847
O             0.4944526475        0.5000000000        0.5557328683
O            -0.0024477179        0.0000000000        0.5880500344
O             0.5013563434        0.0000000000        0.5893390588
Ru            0.2346966345        0.0000000000        0.6416327316
Ru            0.7619162861        0.0000000000        0.6423570195
O             0.2480487940        0.3117299163        0.6405814893
O             0.7503129454        0.3133969586        0.6439637975
Ru            0.0008252027        0.5000000000        0.6431567775
Ru            0.5014065326        0.5000000000        0.6461414616
O             0.2480487940        0.6882700837        0.6405814893
O             0.7503129454        0.6866030414        0.6439637975
O             0.0001788247        0.0000000000        0.6930543529
O             0.4973395747        0.0000000000        0.7095647336
O             0.0135884821        0.5000000000        0.7308563107
O             0.4768831370        0.5000000000        0.7266171878
H             0.1582781088        0.5000000000        0.2571348868
H             0.1582781088        0.5000000000        0.7428651132
H             0.4967568918        0.1335494699        0.2636388353
H             0.4967568918        0.1335494699        0.7363611647
H             0.4967568918        0.8664505301        0.2636388353
H             0.4967568918        0.8664505301        0.7363611647
End final coordinates



     Writing all to output data dir /storage/home/mgm6007/ixd4/Maria/Strain1_Files/RuO2-110-0-035/RuO2-110-0-035.save/
 
     init_run     :    344.13s CPU    802.35s WALL (       1 calls)
     electrons    :  68424.47s CPU 191711.11s WALL (      50 calls)
     update_pot   :     82.91s CPU     83.03s WALL (      49 calls)
     forces       :     77.55s CPU     77.94s WALL (      50 calls)

     Called by init_run:
     wfcinit      :      0.49s CPU      0.49s WALL (       1 calls)
     potinit      :    227.72s CPU    552.26s WALL (       1 calls)
     hinit0       :    115.47s CPU    249.10s WALL (       1 calls)

     Called by electrons:
     c_bands      :   1390.87s CPU   1393.32s WALL (    1122 calls)
     sum_band     :    298.97s CPU    299.48s WALL (    1122 calls)
     v_of_rho     :    135.67s CPU    136.16s WALL (    1142 calls)
     newd         :     81.00s CPU     81.13s WALL (    1142 calls)
     PAW_pot      :    136.86s CPU    136.95s WALL (    1191 calls)
     mix_rho      :    797.20s CPU    798.15s WALL (    1122 calls)

     Called by c_bands:
     init_us_2    :     15.77s CPU     15.83s WALL (    2294 calls)
     init_us_2:cp :     15.76s CPU     15.82s WALL (    2294 calls)
     cegterg      :   1338.51s CPU   1340.54s WALL (    1122 calls)

     Called by *egterg:
     cdiaghg      :    165.54s CPU    165.74s WALL (    3361 calls)
     h_psi        :    685.13s CPU    686.30s WALL (    3441 calls)
     s_psi        :    104.12s CPU    104.21s WALL (    3441 calls)
     g_psi        :      3.60s CPU      3.60s WALL (    2318 calls)

     Called by h_psi:
     h_psi:calbec :    104.63s CPU    104.75s WALL (    3441 calls)
     vloc_psi     :    467.85s CPU    468.81s WALL (    3441 calls)
     add_vuspsi   :    104.57s CPU    104.67s WALL (    3441 calls)

     General routines
     calbec       :    162.72s CPU    162.93s WALL (    4812 calls)
     fft          :  15004.72s CPU  15010.24s WALL (   15375 calls)
     ffts         :    284.40s CPU    284.58s WALL (  444680 calls)
     fftw         :    429.36s CPU    430.14s WALL ( 1304318 calls)
     interpolate  :  14916.30s CPU  14921.75s WALL (    1142 calls)
 
     Parallel routines
 
     Environ routines
 
     PWSCF        :     20h 0m CPU   2d 7h52m WALL

 
   This run was terminated on:  18:21:52  16Jul2023            

=------------------------------------------------------------------------------=
   JOB DONE.
=------------------------------------------------------------------------------=
