
     Program PWSCF v.7.2 starts on 23Jul2023 at 14:19:26 
        Git branch: heads/qe-7.2
        Last git commit: b4c5e8deeb7d1863e7553a87b45f8d22c21926a5
        Last git commit date: Mon Mar 27 16:12:09 2023 +0000
        Last git commit subject: Merge branch 'merge_fix_hubbard' into 'develop'

     This program is part of the open-source Quantum ESPRESSO suite
     for quantum simulation of materials; please cite
         "P. Giannozzi et al., J. Phys.:Condens. Matter 21 395502 (2009);
         "P. Giannozzi et al., J. Phys.:Condens. Matter 29 465901 (2017);
         "P. Giannozzi et al., J. Chem. Phys. 152 154105 (2020);
          URL http://www.quantum-espresso.org", 
     in publications or presentations arising from this work. More details at
     http://www.quantum-espresso.org/quote

     Parallel version (MPI), running on    20 processors

     MPI processes distributed on     1 nodes
     109998 MiB available memory on the printing compute node when the environment starts
 
     Reading input from RuO2-110-0-025.in

     Current dimensions of program PWSCF are:
     Max number of different atomic species (ntypx) = 10
     Max number of k-points (npk) =  40000
     Max angular momentum in pseudopotentials (lmaxx) =  4
 
     Reading input from environ.in:
     * Environ restarting
     * setting up water environment
     * using electronic solvent mode
     * setting boundary derivatives method to SCCS default
     

     File /storage/home/mgm6007/ixd4/Maria/Strain2_Files/RuO2-110-0-025/RuO2-110-0-025.update deleted, as requested

     File /storage/home/mgm6007/ixd4/Maria/Strain2_Files/RuO2-110-0-025/RuO2-110-0-025.bfgs deleted, as requested
     file O.pbe-n-kjpaw_psl.0.1.UPF: wavefunction(s)  2P renormalized
     Message from routine setup:
     using ibrav=0 with symmetry is DISCOURAGED, use correct ibrav instead
 
     R & G space division:  proc/nbgrp/npool/nimage =      20
     Subspace diagonalization in iterative solution of the eigenvalue problem:
     one sub-group per band group will be used
     scalapack distributed-memory algorithm (size of sub-group:  2*  2 procs)

 
     Parallelization info
     --------------------
     sticks:   dense  smooth     PW     G-vecs:    dense   smooth      PW
     Min         279     111     29                55537    14039    1893
     Max         280     112     30                55546    14052    1904
     Sum        5595    2237    595              1110843   280917   37967
 
     Using Slab Decomposition
 


     bravais-lattice index     =            0
     lattice parameter (alat)  =      12.2467  a.u.
     unit-cell volume          =    5883.2137 (a.u.)^3
     number of atoms/cell      =           46
     number of atomic types    =            3
     number of electrons       =       366.00
     number of Kohn-Sham states=          220
     kinetic-energy cutoff     =      50.0000  Ry
     charge density cutoff     =     500.0000  Ry
     scf convergence threshold =      1.0E-09
     mixing beta               =       0.7000
     number of iterations used =            8  local-TF  mixing
     energy convergence thresh.=      1.0E-04
     force convergence thresh. =      1.0E-04
     Exchange-correlation= PBE
                           (   1   4   3   4   0   0   0)
     nstep                     =          200


     ================================================================================
 
                                  Environ Setup Summary

     ================================================================================
 
     Please cite

          O. Andreussi, I. Dabo and N. Marzari, J. Chem. Phys. 136, 064102 (2012)

     in publications or presentations arising from this work.

     ================================================================================
 
     Parameters
     ==========

     compensation onset threshold      =               0.1000E+00
     static permittivity               =                    78.30
     surface tension in input (dyn/cm) =                    47.90
     surface tension in internal units =               0.6153E-04
     external pressure in input (GPa)  =                    -0.36
     external pressure in inter. units =              -0.2447E-04

     Solvent Boundary
     ================

     solvent mode                      =               electronic
     derivatives method                =                    chain
     numerical core for derivatives    =                      fft
     switching function adopted        =                     SCCS
     density limit for vacuum region   =               0.5000E-02
     density limit for bulk solvent    =               0.1000E-03

     Electrostatic Setup
     ===================

     electrostatic problem to solve    =              generalized
     numerical solver adopted          =                       cg
     type of auxiliary density adopted =                     none
     numerical core for poisson        =                      fft
     type of pbc corrections           =                parabolic
     numerical core for corrections    =                      1da

     ================================================================================
 

     celldm(1)=  12.246684  celldm(2)=   0.000000  celldm(3)=   0.000000
     celldm(4)=   0.000000  celldm(5)=   0.000000  celldm(6)=   0.000000

     crystal axes: (cart. coord. in units of alat)
               a(1) = (   1.000000   0.000000   0.000000 )  
               a(2) = (   0.000000   0.937861   0.000000 )  
               a(3) = (   0.000000   0.000000   3.415235 )  

     reciprocal axes: (cart. coord. in units 2 pi/alat)
               b(1) = (  1.000000  0.000000  0.000000 )  
               b(2) = (  0.000000  1.066256  0.000000 )  
               b(3) = (  0.000000  0.000000  0.292806 )  


     PseudoPot. # 1 for O  read from file:
     /gpfs/group/ixd4/default/Simon/pseudopotentials/materialscloud/SSSP_1.3.0_PBE_efficiency/O.pbe-n-kjpaw_psl.0.1.UPF
     MD5 check sum: 0234752ac141de4415c5fc33072bef88
     Pseudo is Projector augmented-wave + core cor, Zval =  6.0
     Generated using "atomic" code by A. Dal Corso  v.5.0.99 svn rev. 10869
     Shape of augmentation charge: BESSEL
     Using radial grid of 1095 points,  4 beta functions with: 
                l(1) =   0
                l(2) =   0
                l(3) =   1
                l(4) =   1
     Q(r) pseudized with 0 coefficients 


     PseudoPot. # 2 for Ru read from file:
     /gpfs/group/ixd4/default/Simon/pseudopotentials/materialscloud/SSSP_1.3.0_PBE_efficiency/Ru_ONCV_PBE-1.0.oncvpsp.upf
     MD5 check sum: be037bb81c227cfb9b1461a9f099f4bd
     Pseudo is Norm-conserving, Zval = 16.0
     Generated using ONCVPSP code by D. R. Hamann
     Using radial grid of 1458 points,  6 beta functions with: 
                l(1) =   0
                l(2) =   0
                l(3) =   1
                l(4) =   1
                l(5) =   2
                l(6) =   2

     PseudoPot. # 3 for H  read from file:
     /gpfs/group/ixd4/default/Simon/pseudopotentials/materialscloud/SSSP_1.3.0_PBE_efficiency/H.pbe-rrkjus_psl.1.0.0.UPF
     MD5 check sum: f52b6d4d1c606e5624b1dc7b2218f220
     Pseudo is Ultrasoft, Zval =  1.0
     Generated using "atomic" code by A. Dal Corso  v.5.1
     Using radial grid of  929 points,  2 beta functions with: 
                l(1) =   0
                l(2) =   0
     Q(r) pseudized with 0 coefficients 


     atomic species   valence    mass     pseudopotential
        O              6.00    15.99940     O ( 1.00)
        Ru            16.00   101.07000     Ru( 1.00)
        H              1.00     1.00794     H ( 1.00)

      2 Sym. Ops. (no inversion) found



   Cartesian axes

     site n.     atom                  positions (alat units)
         1           O   tau(   1) = (  -0.0039743   0.4408096   0.9181878  )
         2           O   tau(   2) = (   0.4901047   0.4760083   0.9297246  )
         3           O   tau(   3) = (  -0.0006309  -0.0020727   1.0321368  )
         4           O   tau(   4) = (   0.5000634   0.0007805   1.0364339  )
         5           Ru  tau(   5) = (   0.2497527  -0.0017202   1.2273188  )
         6           Ru  tau(   6) = (   0.7495521  -0.0016205   1.2272874  )
         7           O   tau(   7) = (   0.2471679   0.2883267   1.2269565  )
         8           O   tau(   8) = (   0.7521857   0.2883956   1.2206915  )
         9           Ru  tau(   9) = (  -0.0003376   0.4673810   1.2195003  )
        10           Ru  tau(  10) = (   0.5004598   0.4662469   1.1968127  )
        11           O   tau(  11) = (   0.2442218   0.6472337   1.2197388  )
        12           O   tau(  12) = (   0.7542755   0.6458930   1.2191271  )
        13           O   tau(  13) = (  -0.0001025   0.0007385   1.4068813  )
        14           O   tau(  14) = (   0.4998401  -0.0034355   1.4067252  )
        15           O   tau(  15) = (   0.0008769   0.4690073   1.5239879  )
        16           O   tau(  16) = (   0.4998189   0.4698722   1.5081509  )
        17           Ru  tau(  17) = (   0.0013877  -0.0000206   1.7076210  )
        18           Ru  tau(  18) = (   0.5013102   0.0012356   1.7076210  )
        19           O   tau(  19) = (   0.2524568   0.1771404   1.7076210  )
        20           O   tau(  20) = (   0.7520321   0.1767826   1.7076210  )
        21           Ru  tau(  21) = (   0.2519523   0.4697723   1.7076210  )
        22           Ru  tau(  22) = (   0.7450652   0.4695403   1.7076210  )
        23           O   tau(  23) = (   0.2532607   0.7622826   1.7076210  )
        24           O   tau(  24) = (   0.7515546   0.7619781   1.7076210  )
        25           O   tau(  25) = (   0.0008769   0.4690073   1.8912507  )
        26           O   tau(  26) = (   0.4998189   0.4698722   1.9070877  )
        27           O   tau(  27) = (  -0.0001025   0.0007385   2.0083573  )
        28           O   tau(  28) = (   0.4998401  -0.0034355   2.0085135  )
        29           Ru  tau(  29) = (   0.2497527  -0.0017202   2.1879198  )
        30           Ru  tau(  30) = (   0.7495521  -0.0016205   2.1879512  )
        31           O   tau(  31) = (   0.2471679   0.2883267   2.1882821  )
        32           O   tau(  32) = (   0.7521857   0.2883956   2.1945472  )
        33           Ru  tau(  33) = (  -0.0003376   0.4673810   2.1957383  )
        34           Ru  tau(  34) = (   0.5004598   0.4662469   2.2184260  )
        35           O   tau(  35) = (   0.2442218   0.6472337   2.1954999  )
        36           O   tau(  36) = (   0.7542755   0.6458930   2.1961115  )
        37           O   tau(  37) = (  -0.0006309  -0.0020727   2.3831052  )
        38           O   tau(  38) = (   0.5000634   0.0007805   2.3788081  )
        39           O   tau(  39) = (  -0.0039743   0.4408096   2.4970508  )
        40           O   tau(  40) = (   0.4901047   0.4760083   2.4855140  )
        41           H   tau(  41) = (   0.1288296   0.4776258   0.8569475  )
        42           H   tau(  42) = (   0.1288296   0.4776258   2.5582877  )
        43           H   tau(  43) = (  -0.0007305   0.1091716   0.9293522  )
        44           H   tau(  44) = (  -0.0007305   0.1091716   2.4858830  )
        45           H   tau(  45) = (   0.5017522   0.8548903   0.9112963  )
        46           H   tau(  46) = (   0.5017522   0.8548903   2.5039389  )

     number of k points=     2  Marzari-Vanderbilt smearing, width (Ry)=  0.0300
                       cart. coord. in units 2pi/alat
        k(    1) = (   0.2500000   0.2665641   0.0000000), wk =   1.0000000
        k(    2) = (  -0.2500000   0.2665641   0.0000000), wk =   1.0000000

     Dense  grid:  1110843 G-vectors     FFT dimensions: (  90,  81, 300)

     Smooth grid:   280917 G-vectors     FFT dimensions: (  60,  54, 192)

     Estimated max dynamical RAM per process >     182.03 MB

     Estimated total dynamical RAM >       3.56 GB

     Check: negative core charge=   -0.000001

     Initial potential from superposition of free atoms

     starting charge     365.9933, renormalised to     366.0000

     add environment contribution to local potential
     Polarization accuracy = 2.1E-12, # of iterations =  26

     negative rho (up, down):  3.080E-05 0.000E+00
     Starting wfcs are  238 randomized atomic wfcs
     Checking if some PAW data can be deallocated... 

     total cpu time spent up to now is      674.3 secs

     per-process dynamical memory:   151.1 Mb

     Self-consistent Calculation

     iteration #  1     ecut=    50.00 Ry     beta= 0.70
     Davidson diagonalization with overlap
     ethr =  1.00E-02,  avg # of iterations =  2.0

     negative rho (up, down):  1.650E-08 0.000E+00

     total cpu time spent up to now is      858.3 secs

     total energy              =   -3432.88758452 Ry
     estimated scf accuracy    <       9.59447572 Ry
     electrostatic embedding   =      -0.00180102 Ry
     cavitation energy         =       0.01974949 Ry
     PV energy                 =      -0.08517155 Ry
     correction to one-el term =     218.61267089 Ry

     iteration #  2     ecut=    50.00 Ry     beta= 0.70
     Davidson diagonalization with overlap
     ethr =  2.62E-03,  avg # of iterations =  2.0

     total cpu time spent up to now is     1010.5 secs

     total energy              =   -3434.98947392 Ry
     estimated scf accuracy    <       2.25225160 Ry
     electrostatic embedding   =      -0.00277424 Ry
     cavitation energy         =       0.01964240 Ry
     PV energy                 =      -0.08579925 Ry
     correction to one-el term =     218.61564110 Ry

     iteration #  3     ecut=    50.00 Ry     beta= 0.70
     Davidson diagonalization with overlap
     ethr =  6.15E-04,  avg # of iterations =  1.0

     total cpu time spent up to now is     1221.9 secs

     total energy              =   -3435.17463475 Ry
     estimated scf accuracy    <       0.67286885 Ry
     electrostatic embedding   =      -0.00316728 Ry
     cavitation energy         =       0.01965855 Ry
     PV energy                 =      -0.08591983 Ry
     correction to one-el term =     218.61670504 Ry

     iteration #  4     ecut=    50.00 Ry     beta= 0.70
     Davidson diagonalization with overlap
     ethr =  1.84E-04,  avg # of iterations =  2.0

     total cpu time spent up to now is     1387.2 secs

     total energy              =   -3435.23103567 Ry
     estimated scf accuracy    <       0.54629787 Ry
     electrostatic embedding   =      -0.00325239 Ry
     cavitation energy         =       0.01980107 Ry
     PV energy                 =      -0.08544864 Ry
     correction to one-el term =     218.61663133 Ry

     iteration #  5     ecut=    50.00 Ry     beta= 0.70
     Davidson diagonalization with overlap
     ethr =  1.49E-04,  avg # of iterations =  1.0

     total cpu time spent up to now is     1537.1 secs

     total energy              =   -3435.22019603 Ry
     estimated scf accuracy    <       0.25233230 Ry
     electrostatic embedding   =      -0.00340318 Ry
     cavitation energy         =       0.02006800 Ry
     PV energy                 =      -0.08477286 Ry
     correction to one-el term =     218.61666248 Ry

     iteration #  6     ecut=    50.00 Ry     beta= 0.70
     Davidson diagonalization with overlap
     ethr =  6.89E-05,  avg # of iterations =  1.0

     total cpu time spent up to now is     1699.0 secs

     total energy              =   -3435.21928218 Ry
     estimated scf accuracy    <       0.13561400 Ry
     electrostatic embedding   =      -0.00345274 Ry
     cavitation energy         =       0.02062130 Ry
     PV energy                 =      -0.08347787 Ry
     correction to one-el term =     218.61620262 Ry

     iteration #  7     ecut=    50.00 Ry     beta= 0.70
     Davidson diagonalization with overlap
     ethr =  3.71E-05,  avg # of iterations =  1.0

     add environment contribution to local potential
     Polarization accuracy = 3.2E-12, # of iterations =  45

     total cpu time spent up to now is     1868.1 secs

     total energy              =   -3435.21120033 Ry
     estimated scf accuracy    <       0.09036771 Ry
     electrostatic embedding   =      -0.00337964 Ry
     cavitation energy         =       0.02086351 Ry
     PV energy                 =      -0.08287107 Ry
     correction to one-el term =     218.61574374 Ry

     iteration #  8     ecut=    50.00 Ry     beta= 0.70
     Davidson diagonalization with overlap
     ethr =  2.47E-05,  avg # of iterations =  2.0

     add environment contribution to local potential
     Polarization accuracy = 5.0E-12, # of iterations =  45

     total cpu time spent up to now is     2036.1 secs

     total energy              =   -3435.24695608 Ry
     estimated scf accuracy    <       0.07045040 Ry
     electrostatic embedding   =      -0.04520288 Ry
     cavitation energy         =       0.02157646 Ry
     PV energy                 =      -0.08130127 Ry
     correction to one-el term =     182.09759167 Ry

     iteration #  9     ecut=    50.00 Ry     beta= 0.70
     Davidson diagonalization with overlap
     ethr =  1.92E-05,  avg # of iterations =  1.0

     add environment contribution to local potential
     Polarization accuracy = 8.9E-12, # of iterations =  48

     total cpu time spent up to now is     2202.4 secs

     total energy              =   -3435.24323757 Ry
     estimated scf accuracy    <       0.03092760 Ry
     electrostatic embedding   =      -0.04636456 Ry
     cavitation energy         =       0.02157781 Ry
     PV energy                 =      -0.08122324 Ry
     correction to one-el term =     181.98923389 Ry

     iteration # 10     ecut=    50.00 Ry     beta= 0.70
     Davidson diagonalization with overlap
     ethr =  8.45E-06,  avg # of iterations =  2.0

     negative rho (up, down):  6.532E-05 0.000E+00

     add environment contribution to local potential
     Polarization accuracy = 6.0E-12, # of iterations =  49

     total cpu time spent up to now is     2398.8 secs

     total energy              =   -3435.24396516 Ry
     estimated scf accuracy    <       0.01214830 Ry
     electrostatic embedding   =      -0.05135804 Ry
     cavitation energy         =       0.02168029 Ry
     PV energy                 =      -0.08083399 Ry
     correction to one-el term =     181.17134540 Ry

     iteration # 11     ecut=    50.00 Ry     beta= 0.70
     Davidson diagonalization with overlap
     ethr =  3.32E-06,  avg # of iterations = 10.5

     negative rho (up, down):  1.556E-03 0.000E+00

     add environment contribution to local potential
     Polarization accuracy = 8.1E-12, # of iterations =  49

     total cpu time spent up to now is     2552.1 secs

     total energy              =   -3435.24605172 Ry
     estimated scf accuracy    <       0.01339231 Ry
     electrostatic embedding   =      -0.05629919 Ry
     cavitation energy         =       0.02157575 Ry
     PV energy                 =      -0.08071587 Ry
     correction to one-el term =     181.43813243 Ry

     iteration # 12     ecut=    50.00 Ry     beta= 0.70
     Davidson diagonalization with overlap
     ethr =  3.32E-06,  avg # of iterations =  2.0

     negative rho (up, down):  2.265E-03 0.000E+00

     add environment contribution to local potential
     Polarization accuracy = 6.0E-12, # of iterations =  50

     total cpu time spent up to now is     2714.1 secs

     total energy              =   -3435.24684011 Ry
     estimated scf accuracy    <       0.01219707 Ry
     electrostatic embedding   =      -0.05850451 Ry
     cavitation energy         =       0.02148623 Ry
     PV energy                 =      -0.08070549 Ry
     correction to one-el term =     182.01727845 Ry

     iteration # 13     ecut=    50.00 Ry     beta= 0.70
     Davidson diagonalization with overlap
     ethr =  3.32E-06,  avg # of iterations =  2.0

     negative rho (up, down):  2.544E-04 0.000E+00

     add environment contribution to local potential
     Polarization accuracy = 3.2E-12, # of iterations =  48

     total cpu time spent up to now is     2873.1 secs

     total energy              =   -3435.24742228 Ry
     estimated scf accuracy    <       0.00425338 Ry
     electrostatic embedding   =      -0.05954012 Ry
     cavitation energy         =       0.02145207 Ry
     PV energy                 =      -0.08071707 Ry
     correction to one-el term =     182.40192893 Ry

     iteration # 14     ecut=    50.00 Ry     beta= 0.70
     Davidson diagonalization with overlap
     ethr =  1.16E-06,  avg # of iterations =  7.0

     negative rho (up, down):  4.812E-06 0.000E+00

     add environment contribution to local potential
     Polarization accuracy = 6.4E-12, # of iterations =  47

     total cpu time spent up to now is     3036.4 secs

     total energy              =   -3435.24815489 Ry
     estimated scf accuracy    <       0.00205336 Ry
     electrostatic embedding   =      -0.05670320 Ry
     cavitation energy         =       0.02127505 Ry
     PV energy                 =      -0.08099212 Ry
     correction to one-el term =     183.94423503 Ry

     iteration # 15     ecut=    50.00 Ry     beta= 0.70
     Davidson diagonalization with overlap
     ethr =  5.61E-07,  avg # of iterations =  6.0

     negative rho (up, down):  1.788E-06 0.000E+00

     add environment contribution to local potential
     Polarization accuracy = 2.0E-12, # of iterations =  47

     total cpu time spent up to now is     3223.0 secs

     total energy              =   -3435.24855510 Ry
     estimated scf accuracy    <       0.00080357 Ry
     electrostatic embedding   =      -0.05541059 Ry
     cavitation energy         =       0.02123114 Ry
     PV energy                 =      -0.08108606 Ry
     correction to one-el term =     184.55353904 Ry

     iteration # 16     ecut=    50.00 Ry     beta= 0.70
     Davidson diagonalization with overlap
     ethr =  2.20E-07,  avg # of iterations =  8.0

     negative rho (up, down):  4.013E-05 0.000E+00

     add environment contribution to local potential
     Polarization accuracy = 4.9E-12, # of iterations =  45

     total cpu time spent up to now is     3390.2 secs

     total energy              =   -3435.24892182 Ry
     estimated scf accuracy    <       0.00044099 Ry
     electrostatic embedding   =      -0.05272788 Ry
     cavitation energy         =       0.02114529 Ry
     PV energy                 =      -0.08125921 Ry
     correction to one-el term =     186.08401860 Ry

     iteration # 17     ecut=    50.00 Ry     beta= 0.70
     Davidson diagonalization with overlap
     ethr =  1.20E-07,  avg # of iterations =  8.0

     negative rho (up, down):  4.142E-04 0.000E+00

     add environment contribution to local potential
     Polarization accuracy = 6.6E-12, # of iterations =  45

     total cpu time spent up to now is     3548.1 secs

     total energy              =   -3435.24899848 Ry
     estimated scf accuracy    <       0.00005140 Ry
     electrostatic embedding   =      -0.05125482 Ry
     cavitation energy         =       0.02111403 Ry
     PV energy                 =      -0.08133150 Ry
     correction to one-el term =     186.55889863 Ry

     iteration # 18     ecut=    50.00 Ry     beta= 0.70
     Davidson diagonalization with overlap
     ethr =  1.40E-08,  avg # of iterations =  2.0

     negative rho (up, down):  7.002E-04 0.000E+00

     add environment contribution to local potential
     Polarization accuracy = 7.4E-12, # of iterations =  45

     total cpu time spent up to now is     3728.0 secs

     total energy              =   -3435.24901052 Ry
     estimated scf accuracy    <       0.00003944 Ry
     electrostatic embedding   =      -0.05085685 Ry
     cavitation energy         =       0.02112281 Ry
     PV energy                 =      -0.08131426 Ry
     correction to one-el term =     186.68736075 Ry

     iteration # 19     ecut=    50.00 Ry     beta= 0.70
     Davidson diagonalization with overlap
     ethr =  1.08E-08,  avg # of iterations =  2.0

     negative rho (up, down):  6.677E-04 0.000E+00

     add environment contribution to local potential
     Polarization accuracy = 1.0E-11, # of iterations =  45

     total cpu time spent up to now is     3919.2 secs

     total energy              =   -3435.24901609 Ry
     estimated scf accuracy    <       0.00001941 Ry
     electrostatic embedding   =      -0.05046266 Ry
     cavitation energy         =       0.02112816 Ry
     PV energy                 =      -0.08130538 Ry
     correction to one-el term =     186.77112258 Ry

     iteration # 20     ecut=    50.00 Ry     beta= 0.70
     Davidson diagonalization with overlap
     ethr =  5.30E-09,  avg # of iterations =  2.0

     negative rho (up, down):  1.603E-04 0.000E+00

     add environment contribution to local potential
     Polarization accuracy = 2.0E-12, # of iterations =  47

     total cpu time spent up to now is     4093.0 secs

     total energy              =   -3435.24901708 Ry
     estimated scf accuracy    <       0.00001115 Ry
     electrostatic embedding   =      -0.05016995 Ry
     cavitation energy         =       0.02113724 Ry
     PV energy                 =      -0.08128140 Ry
     correction to one-el term =     186.82187765 Ry

     iteration # 21     ecut=    50.00 Ry     beta= 0.70
     Davidson diagonalization with overlap
     ethr =  3.05E-09,  avg # of iterations =  2.0

     negative rho (up, down):  2.381E-04 0.000E+00

     add environment contribution to local potential
     Polarization accuracy = 2.9E-12, # of iterations =  46

     total cpu time spent up to now is     4276.6 secs

     total energy              =   -3435.24901758 Ry
     estimated scf accuracy    <       0.00000543 Ry
     electrostatic embedding   =      -0.05010398 Ry
     cavitation energy         =       0.02114195 Ry
     PV energy                 =      -0.08126964 Ry
     correction to one-el term =     186.79627877 Ry

     iteration # 22     ecut=    50.00 Ry     beta= 0.70
     Davidson diagonalization with overlap
     ethr =  1.48E-09,  avg # of iterations =  2.0

     negative rho (up, down):  1.296E-04 0.000E+00

     add environment contribution to local potential
     Polarization accuracy = 2.0E-12, # of iterations =  47

     total cpu time spent up to now is     4462.2 secs

     total energy              =   -3435.24901782 Ry
     estimated scf accuracy    <       0.00000520 Ry
     electrostatic embedding   =      -0.04999996 Ry
     cavitation energy         =       0.02114076 Ry
     PV energy                 =      -0.08127210 Ry
     correction to one-el term =     186.81910799 Ry

     iteration # 23     ecut=    50.00 Ry     beta= 0.70
     Davidson diagonalization with overlap
     ethr =  1.42E-09,  avg # of iterations =  2.0

     negative rho (up, down):  7.902E-05 0.000E+00

     add environment contribution to local potential
     Polarization accuracy = 2.1E-12, # of iterations =  47

     total cpu time spent up to now is     4636.0 secs

     total energy              =   -3435.24901800 Ry
     estimated scf accuracy    <       0.00000249 Ry
     electrostatic embedding   =      -0.04995024 Ry
     cavitation energy         =       0.02114166 Ry
     PV energy                 =      -0.08126739 Ry
     correction to one-el term =     186.81554095 Ry

     iteration # 24     ecut=    50.00 Ry     beta= 0.70
     Davidson diagonalization with overlap
     ethr =  6.81E-10,  avg # of iterations =  2.0

     negative rho (up, down):  4.715E-05 0.000E+00

     add environment contribution to local potential
     Polarization accuracy = 6.3E-12, # of iterations =  46

     total cpu time spent up to now is     4816.4 secs

     total energy              =   -3435.24901824 Ry
     estimated scf accuracy    <       0.00000091 Ry
     electrostatic embedding   =      -0.04986158 Ry
     cavitation energy         =       0.02114147 Ry
     PV energy                 =      -0.08126418 Ry
     correction to one-el term =     186.81735750 Ry

     iteration # 25     ecut=    50.00 Ry     beta= 0.70
     Davidson diagonalization with overlap
     ethr =  2.48E-10,  avg # of iterations =  2.0

     negative rho (up, down):  4.363E-05 0.000E+00

     add environment contribution to local potential
     Polarization accuracy = 2.1E-12, # of iterations =  47

     total cpu time spent up to now is     4982.4 secs

     total energy              =   -3435.24901833 Ry
     estimated scf accuracy    <       0.00000051 Ry
     electrostatic embedding   =      -0.04985386 Ry
     cavitation energy         =       0.02114147 Ry
     PV energy                 =      -0.08126326 Ry
     correction to one-el term =     186.80828447 Ry

     iteration # 26     ecut=    50.00 Ry     beta= 0.70
     Davidson diagonalization with overlap
     ethr =  1.40E-10,  avg # of iterations =  2.0

     negative rho (up, down):  5.819E-05 0.000E+00

     add environment contribution to local potential
     Polarization accuracy = 2.1E-12, # of iterations =  47

     total cpu time spent up to now is     5172.7 secs

     total energy              =   -3435.24901867 Ry
     estimated scf accuracy    <       0.00000029 Ry
     electrostatic embedding   =      -0.04984479 Ry
     cavitation energy         =       0.02114118 Ry
     PV energy                 =      -0.08126306 Ry
     correction to one-el term =     186.80605467 Ry

     iteration # 27     ecut=    50.00 Ry     beta= 0.70
     Davidson diagonalization with overlap
     ethr =  7.96E-11,  avg # of iterations =  1.0

     negative rho (up, down):  7.375E-05 0.000E+00

     add environment contribution to local potential
     Polarization accuracy = 2.1E-12, # of iterations =  47

     total cpu time spent up to now is     5354.3 secs

     total energy              =   -3435.24901909 Ry
     estimated scf accuracy    <       0.00000019 Ry
     electrostatic embedding   =      -0.04984662 Ry
     cavitation energy         =       0.02114061 Ry
     PV energy                 =      -0.08126409 Ry
     correction to one-el term =     186.80782440 Ry

     iteration # 28     ecut=    50.00 Ry     beta= 0.70
     Davidson diagonalization with overlap
     ethr =  5.10E-11,  avg # of iterations =  2.0

     negative rho (up, down):  1.037E-04 0.000E+00

     add environment contribution to local potential
     Polarization accuracy = 9.4E-12, # of iterations =  46

     total cpu time spent up to now is     5508.6 secs

     total energy              =   -3435.24901961 Ry
     estimated scf accuracy    <       0.00000014 Ry
     electrostatic embedding   =      -0.04984020 Ry
     cavitation energy         =       0.02114038 Ry
     PV energy                 =      -0.08126425 Ry
     correction to one-el term =     186.81051487 Ry

     iteration # 29     ecut=    50.00 Ry     beta= 0.70
     Davidson diagonalization with overlap
     ethr =  3.78E-11,  avg # of iterations =  2.0

     negative rho (up, down):  1.407E-04 0.000E+00

     add environment contribution to local potential
     Polarization accuracy = 2.1E-12, # of iterations =  47

     total cpu time spent up to now is     5706.2 secs

     total energy              =   -3435.24902002 Ry
     estimated scf accuracy    <       0.00000012 Ry
     electrostatic embedding   =      -0.04986036 Ry
     cavitation energy         =       0.02113998 Ry
     PV energy                 =      -0.08126547 Ry
     correction to one-el term =     186.81257862 Ry

     iteration # 30     ecut=    50.00 Ry     beta= 0.70
     Davidson diagonalization with overlap
     ethr =  3.32E-11,  avg # of iterations =  2.0

     negative rho (up, down):  1.535E-04 0.000E+00

     add environment contribution to local potential
     Polarization accuracy = 2.1E-12, # of iterations =  47

     total cpu time spent up to now is     5913.8 secs

     total energy              =   -3435.24902063 Ry
     estimated scf accuracy    <       0.00000010 Ry
     electrostatic embedding   =      -0.04987006 Ry
     cavitation energy         =       0.02113979 Ry
     PV energy                 =      -0.08126594 Ry
     correction to one-el term =     186.81632587 Ry

     iteration # 31     ecut=    50.00 Ry     beta= 0.70
     Davidson diagonalization with overlap
     ethr =  2.70E-11,  avg # of iterations =  1.0

     negative rho (up, down):  1.596E-04 0.000E+00

     add environment contribution to local potential
     Polarization accuracy = 2.2E-12, # of iterations =  46

     total cpu time spent up to now is     6085.6 secs

     total energy              =   -3435.24902115 Ry
     estimated scf accuracy    <       0.00000007 Ry
     electrostatic embedding   =      -0.04986978 Ry
     cavitation energy         =       0.02113975 Ry
     PV energy                 =      -0.08126562 Ry
     correction to one-el term =     186.81812985 Ry

     iteration # 32     ecut=    50.00 Ry     beta= 0.70
     Davidson diagonalization with overlap
     ethr =  1.97E-11,  avg # of iterations =  2.0

     negative rho (up, down):  1.668E-04 0.000E+00

     add environment contribution to local potential
     Polarization accuracy = 2.7E-12, # of iterations =  46

     total cpu time spent up to now is     6240.2 secs

     total energy              =   -3435.24902156 Ry
     estimated scf accuracy    <       0.00000007 Ry
     electrostatic embedding   =      -0.04987182 Ry
     cavitation energy         =       0.02113977 Ry
     PV energy                 =      -0.08126532 Ry
     correction to one-el term =     186.81905169 Ry

     iteration # 33     ecut=    50.00 Ry     beta= 0.70
     Davidson diagonalization with overlap
     ethr =  1.79E-11,  avg # of iterations =  1.0

     negative rho (up, down):  1.567E-04 0.000E+00

     add environment contribution to local potential
     Polarization accuracy = 9.0E-12, # of iterations =  47

     total cpu time spent up to now is     6405.5 secs

     total energy              =   -3435.24902192 Ry
     estimated scf accuracy    <       0.00000006 Ry
     electrostatic embedding   =      -0.04987262 Ry
     cavitation energy         =       0.02113970 Ry
     PV energy                 =      -0.08126528 Ry
     correction to one-el term =     186.81953541 Ry

     iteration # 34     ecut=    50.00 Ry     beta= 0.70
     Davidson diagonalization with overlap
     ethr =  1.61E-11,  avg # of iterations =  1.0

     negative rho (up, down):  1.571E-04 0.000E+00

     add environment contribution to local potential
     Polarization accuracy = 2.1E-12, # of iterations =  47

     total cpu time spent up to now is     6571.2 secs

     total energy              =   -3435.24902239 Ry
     estimated scf accuracy    <       0.00000005 Ry
     electrostatic embedding   =      -0.04986989 Ry
     cavitation energy         =       0.02113978 Ry
     PV energy                 =      -0.08126470 Ry
     correction to one-el term =     186.81902448 Ry

     iteration # 35     ecut=    50.00 Ry     beta= 0.70
     Davidson diagonalization with overlap
     ethr =  1.37E-11,  avg # of iterations =  1.0

     negative rho (up, down):  1.450E-04 0.000E+00

     add environment contribution to local potential
     Polarization accuracy = 2.1E-12, # of iterations =  47

     total cpu time spent up to now is     6741.3 secs

     total energy              =   -3435.24902285 Ry
     estimated scf accuracy    <       0.00000005 Ry
     electrostatic embedding   =      -0.04987178 Ry
     cavitation energy         =       0.02113980 Ry
     PV energy                 =      -0.08126457 Ry
     correction to one-el term =     186.81882657 Ry

     iteration # 36     ecut=    50.00 Ry     beta= 0.70
     Davidson diagonalization with overlap
     ethr =  1.31E-11,  avg # of iterations =  2.0

     negative rho (up, down):  1.377E-04 0.000E+00

     add environment contribution to local potential
     Polarization accuracy = 2.2E-12, # of iterations =  46

     total cpu time spent up to now is     6927.6 secs

     total energy              =   -3435.24902433 Ry
     estimated scf accuracy    <       0.00000005 Ry
     electrostatic embedding   =      -0.04987204 Ry
     cavitation energy         =       0.02113986 Ry
     PV energy                 =      -0.08126415 Ry
     correction to one-el term =     186.81690092 Ry

     iteration # 37     ecut=    50.00 Ry     beta= 0.70
     Davidson diagonalization with overlap
     ethr =  1.31E-11,  avg # of iterations =  2.0

     negative rho (up, down):  1.369E-04 0.000E+00

     add environment contribution to local potential
     Polarization accuracy = 4.3E-12, # of iterations =  46

     total cpu time spent up to now is     7091.6 secs

     total energy              =   -3435.24902605 Ry
     estimated scf accuracy    <       0.00000004 Ry
     electrostatic embedding   =      -0.04987520 Ry
     cavitation energy         =       0.02113990 Ry
     PV energy                 =      -0.08126410 Ry
     correction to one-el term =     186.81508846 Ry

     iteration # 38     ecut=    50.00 Ry     beta= 0.70
     Davidson diagonalization with overlap
     ethr =  1.22E-11,  avg # of iterations =  2.0

     negative rho (up, down):  1.254E-04 0.000E+00

     add environment contribution to local potential
     Polarization accuracy = 9.0E-12, # of iterations =  46

     total cpu time spent up to now is     7262.4 secs

     total energy              =   -3435.24902731 Ry
     estimated scf accuracy    <       0.00000004 Ry
     electrostatic embedding   =      -0.04987964 Ry
     cavitation energy         =       0.02113989 Ry
     PV energy                 =      -0.08126502 Ry
     correction to one-el term =     186.81390421 Ry

     iteration # 39     ecut=    50.00 Ry     beta= 0.70
     Davidson diagonalization with overlap
     ethr =  1.14E-11,  avg # of iterations =  5.0

     negative rho (up, down):  1.226E-04 0.000E+00

     add environment contribution to local potential
     Polarization accuracy = 7.5E-12, # of iterations =  45

     total cpu time spent up to now is     7429.7 secs

     total energy              =   -3435.24903017 Ry
     estimated scf accuracy    <       0.00000003 Ry
     electrostatic embedding   =      -0.04987790 Ry
     cavitation energy         =       0.02114001 Ry
     PV energy                 =      -0.08126427 Ry
     correction to one-el term =     186.81277210 Ry

     iteration # 40     ecut=    50.00 Ry     beta= 0.70
     Davidson diagonalization with overlap
     ethr =  8.53E-12,  avg # of iterations =  5.0

     negative rho (up, down):  1.272E-04 0.000E+00

     add environment contribution to local potential
     Polarization accuracy = 5.9E-12, # of iterations =  46

     total cpu time spent up to now is     7602.7 secs

     total energy              =   -3435.24903680 Ry
     estimated scf accuracy    <       0.00000002 Ry
     electrostatic embedding   =      -0.04988296 Ry
     cavitation energy         =       0.02114007 Ry
     PV energy                 =      -0.08126444 Ry
     correction to one-el term =     186.81160951 Ry

     iteration # 41     ecut=    50.00 Ry     beta= 0.70
     Davidson diagonalization with overlap
     ethr =  6.08E-12,  avg # of iterations =  2.0

     negative rho (up, down):  1.361E-04 0.000E+00

     add environment contribution to local potential
     Polarization accuracy = 5.3E-12, # of iterations =  45

     total cpu time spent up to now is     7767.2 secs

     total energy              =   -3435.24903907 Ry
     estimated scf accuracy    <       0.00000001 Ry
     electrostatic embedding   =      -0.04988082 Ry
     cavitation energy         =       0.02114004 Ry
     PV energy                 =      -0.08126475 Ry
     correction to one-el term =     186.81303677 Ry

     iteration # 42     ecut=    50.00 Ry     beta= 0.70
     Davidson diagonalization with overlap
     ethr =  3.86E-12,  avg # of iterations =  5.0

     negative rho (up, down):  1.412E-04 0.000E+00

     add environment contribution to local potential
     Polarization accuracy = 2.7E-12, # of iterations =  46

     total cpu time spent up to now is     7935.2 secs

     total energy              =   -3435.24904208 Ry
     estimated scf accuracy    <       0.00000001 Ry
     electrostatic embedding   =      -0.04987892 Ry
     cavitation energy         =       0.02113999 Ry
     PV energy                 =      -0.08126507 Ry
     correction to one-el term =     186.81510769 Ry

     iteration # 43     ecut=    50.00 Ry     beta= 0.70
     Davidson diagonalization with overlap
     ethr =  3.18E-12,  avg # of iterations =  2.0

     negative rho (up, down):  1.427E-04 0.000E+00

     add environment contribution to local potential
     Polarization accuracy = 5.1E-12, # of iterations =  45

     total cpu time spent up to now is     8106.7 secs

     total energy              =   -3435.24904458 Ry
     estimated scf accuracy    <          2.3E-09 Ry
     electrostatic embedding   =      -0.04987553 Ry
     cavitation energy         =       0.02113993 Ry
     PV energy                 =      -0.08126471 Ry
     correction to one-el term =     186.81645093 Ry

     iteration # 44     ecut=    50.00 Ry     beta= 0.70
     Davidson diagonalization with overlap
     ethr =  6.22E-13,  avg # of iterations =  5.0

     negative rho (up, down):  1.451E-04 0.000E+00

     the potential shift due to the Gaussian-smeared nuclei is    -1.3296 ev

     total cpu time spent up to now is     8277.2 secs

     End of self-consistent calculation

          k = 0.2500 0.2666 0.0000 ( 35123 PWs)   bands (ev):

   -77.9891 -77.9756 -77.3011 -77.2879 -77.2564 -77.2436 -77.2250 -77.2122
   -77.1389 -77.1356 -77.1193 -77.0967 -48.4805 -48.4670 -47.8894 -47.8758
   -47.6369 -47.6237 -47.6027 -47.5896 -47.5667 -47.5538 -47.5186 -47.5054
   -47.4305 -47.4150 -47.3486 -47.3190 -47.3058 -47.3038 -47.1829 -47.1777
   -47.1693 -47.0994 -47.0875 -47.0798 -47.0696 -47.0678 -47.0663 -47.0565
   -47.0536 -47.0295 -47.0167 -46.9910 -46.9796 -46.9555 -46.9364 -46.9320
   -23.8753 -23.7863 -23.5029 -23.4663 -23.4399 -23.3551 -23.3305 -23.1414
   -23.0899 -22.9849 -22.8126 -22.7879 -22.6737 -22.6243 -22.5738 -22.5395
   -22.4862 -22.4674 -22.4412 -22.4309 -22.3470 -22.3208 -22.2548 -22.2306
   -22.1844 -22.0098 -21.6056 -21.5171 -12.1862 -11.9270 -11.8355 -11.8068
   -11.6856 -11.4887 -11.4332 -11.2162 -11.1663 -11.1528 -11.0679 -10.9319
   -10.9188 -10.8241 -10.8157 -10.7484 -10.7379 -10.6433 -10.6133 -10.5788
   -10.4848 -10.4206 -10.3414 -10.3157 -10.2173 -10.1190  -9.9963  -9.8012
    -9.7037  -9.6952  -9.5744  -9.4085  -9.3667  -9.2954  -9.2436  -9.1714
    -9.0039  -8.9969  -8.9454  -8.8231  -8.8127  -8.6580  -8.6340  -8.5728
    -8.5459  -8.4559  -8.3825  -8.2865  -8.1941  -8.0692  -8.0474  -8.0007
    -7.9767  -7.9381  -7.9322  -7.8943  -7.8474  -7.7159  -7.6863  -7.6677
    -7.5789  -7.5278  -7.4800  -7.3487  -7.2464  -7.2053  -7.2035  -7.0237
    -6.9228  -6.8752  -6.7997  -6.7461  -6.7334  -6.6321  -6.5143  -6.4970
    -6.4274  -6.3975  -6.3122  -6.2122  -6.1315  -5.9867  -5.9304  -5.8839
    -4.9120  -4.8509  -4.7351  -4.6348  -4.6284  -4.5722  -4.5678  -4.5258
    -4.5023  -4.4809  -4.4651  -4.3676  -4.3568  -4.3108  -4.3006  -4.2586
    -4.1884  -4.1362  -4.1340  -4.0471  -3.9330  -3.9255  -3.7161  -3.7079
    -3.5664  -3.5619  -3.4928  -3.2942  -3.1359  -2.9928  -2.9896  -2.9080
    -2.8453  -2.8111  -2.6181  -2.4997  -1.7372  -1.7260  -1.7139  -1.5546
    -1.3203  -1.2961  -1.0238  -0.4233  -0.4192  -0.1714  -0.0871  -0.0339
     0.0313   0.0850   0.1927   0.2687   0.4875   0.5353   0.6161   0.8495
     0.9406   0.9552   1.0433   1.1771

          k =-0.2500 0.2666 0.0000 ( 35123 PWs)   bands (ev):

   -77.9891 -77.9756 -77.3011 -77.2879 -77.2564 -77.2436 -77.2250 -77.2122
   -77.1389 -77.1356 -77.1193 -77.0967 -48.4805 -48.4670 -47.8894 -47.8758
   -47.6368 -47.6236 -47.6028 -47.5897 -47.5666 -47.5537 -47.5186 -47.5054
   -47.4305 -47.4150 -47.3486 -47.3190 -47.3059 -47.3038 -47.1828 -47.1778
   -47.1692 -47.0998 -47.0878 -47.0798 -47.0694 -47.0679 -47.0662 -47.0562
   -47.0536 -47.0295 -47.0167 -46.9908 -46.9798 -46.9555 -46.9364 -46.9320
   -23.8759 -23.7870 -23.5022 -23.4645 -23.4389 -23.3559 -23.3312 -23.1416
   -23.0897 -22.9840 -22.8136 -22.7873 -22.6724 -22.6298 -22.5806 -22.5345
   -22.4811 -22.4661 -22.4430 -22.4308 -22.3453 -22.3197 -22.2570 -22.2323
   -22.1840 -22.0088 -21.6055 -21.5173 -12.1848 -11.9227 -11.8289 -11.8033
   -11.6865 -11.4971 -11.4407 -11.2045 -11.1850 -11.1622 -11.0650 -10.9283
   -10.9131 -10.8365 -10.8204 -10.7603 -10.7294 -10.6630 -10.5878 -10.5725
   -10.4926 -10.4037 -10.3549 -10.2965 -10.2248 -10.1360  -9.9624  -9.8223
    -9.7322  -9.6639  -9.5272  -9.4430  -9.3709  -9.2746  -9.2496  -9.1637
    -9.0026  -8.9982  -8.9137  -8.8593  -8.8545  -8.6559  -8.6317  -8.5512
    -8.5046  -8.4697  -8.3692  -8.3255  -8.1968  -8.0700  -8.0632  -8.0013
    -7.9857  -7.9374  -7.9021  -7.8916  -7.8523  -7.7187  -7.7106  -7.6478
    -7.5702  -7.5146  -7.4620  -7.3806  -7.3129  -7.1766  -7.1099  -7.0163
    -6.9993  -6.8785  -6.8232  -6.7428  -6.7310  -6.6184  -6.5111  -6.4860
    -6.4030  -6.3965  -6.3104  -6.2243  -6.1669  -5.9942  -5.9391  -5.8512
    -4.9172  -4.8483  -4.7339  -4.6878  -4.6025  -4.5814  -4.5487  -4.5155
    -4.4844  -4.4708  -4.4356  -4.3545  -4.3403  -4.3272  -4.3125  -4.2632
    -4.1926  -4.1687  -4.1114  -4.0454  -3.9589  -3.9200  -3.7514  -3.7182
    -3.5691  -3.5244  -3.4877  -3.2972  -3.1338  -2.9977  -2.9936  -2.9079
    -2.8439  -2.8113  -2.6142  -2.5037  -1.7325  -1.7212  -1.7126  -1.5574
    -1.3197  -1.2967  -1.0235  -0.4245  -0.4179  -0.1651  -0.0899  -0.0476
     0.0550   0.0743   0.1890   0.2661   0.4891   0.5319   0.6271   0.8502
     0.9353   0.9478   1.0402   1.1759

     the Fermi energy is    -3.7817 ev

!    total energy              =   -3435.24904480 Ry
     estimated scf accuracy    <          9.7E-10 Ry
     smearing contrib. (-TS)   =       0.07170920 Ry
     internal energy E=F+TS    =   -3435.32075400 Ry

     The total energy is F=E-TS. E is the sum of the following terms:
     one-electron contribution =  -25448.79604542 Ry
     hartree contribution      =   12710.23929633 Ry
     xc contribution           =    -448.02314152 Ry
     ewald contribution        =    9831.06294235 Ry
     one-center paw contrib.   =    -266.51050153 Ry
     electrostatic embedding   =      -0.04987451 Ry
     cavitation energy         =       0.02113991 Ry
     PV energy                 =      -0.08126466 Ry
     correction to one-el term =     186.81669506 Ry

     WARNING: you are using the parabolic pbc correction;
              the potential shift above must be added to 
              band and Fermi energies.

     convergence has been achieved in  44 iterations

     negative rho (up, down):  1.451E-04 0.000E+00

     Forces acting on atoms (cartesian axes, Ry/au):

     atom    1 type  1   force =    -0.00071970   -0.00185017    0.00115921
     atom    2 type  1   force =    -0.00099051   -0.00097385   -0.00122143
     atom    3 type  1   force =     0.00171295    0.00023257   -0.00065955
     atom    4 type  1   force =    -0.00048913   -0.00146583   -0.00075829
     atom    5 type  2   force =     0.00056006   -0.00051028    0.00065602
     atom    6 type  2   force =     0.00005064   -0.00035912    0.00004291
     atom    7 type  1   force =     0.00391650   -0.00002703   -0.00152837
     atom    8 type  1   force =    -0.00411854    0.00009522    0.00057021
     atom    9 type  2   force =    -0.00050726   -0.00073890   -0.00105984
     atom   10 type  2   force =    -0.00005898    0.00027973   -0.00052190
     atom   11 type  1   force =     0.00111881   -0.00061667   -0.00226242
     atom   12 type  1   force =    -0.00148309   -0.00053314   -0.00055432
     atom   13 type  1   force =    -0.00145428   -0.00154482   -0.00390884
     atom   14 type  1   force =     0.00103125    0.00053132   -0.00123315
     atom   15 type  1   force =    -0.00233738    0.00118402    0.00029316
     atom   16 type  1   force =    -0.00028934   -0.00057397    0.00351953
     atom   17 type  2   force =     0.00013059    0.00016044    0.00000000
     atom   18 type  2   force =     0.00091100   -0.00038642    0.00000000
     atom   19 type  1   force =     0.00053711   -0.00082874    0.00000000
     atom   20 type  1   force =    -0.00110437   -0.00070144    0.00000000
     atom   21 type  2   force =     0.00301224    0.00003662    0.00000000
     atom   22 type  2   force =     0.00047727    0.00020940    0.00000000
     atom   23 type  1   force =    -0.00111055    0.00071283    0.00000000
     atom   24 type  1   force =     0.00047115    0.00097435    0.00000000
     atom   25 type  1   force =    -0.00233738    0.00118402   -0.00029316
     atom   26 type  1   force =    -0.00028934   -0.00057397   -0.00351953
     atom   27 type  1   force =    -0.00145428   -0.00154482    0.00390884
     atom   28 type  1   force =     0.00103125    0.00053132    0.00123315
     atom   29 type  2   force =     0.00056006   -0.00051028   -0.00065602
     atom   30 type  2   force =     0.00005064   -0.00035912   -0.00004291
     atom   31 type  1   force =     0.00391650   -0.00002703    0.00152837
     atom   32 type  1   force =    -0.00411854    0.00009522   -0.00057021
     atom   33 type  2   force =    -0.00050726   -0.00073890    0.00105984
     atom   34 type  2   force =    -0.00005898    0.00027973    0.00052190
     atom   35 type  1   force =     0.00111881   -0.00061667    0.00226242
     atom   36 type  1   force =    -0.00148309   -0.00053314    0.00055432
     atom   37 type  1   force =     0.00171295    0.00023257    0.00065955
     atom   38 type  1   force =    -0.00048913   -0.00146583    0.00075829
     atom   39 type  1   force =    -0.00071970   -0.00185017   -0.00115921
     atom   40 type  1   force =    -0.00099051   -0.00097385    0.00122143
     atom   41 type  3   force =     0.00376316    0.00042636    0.00150907
     atom   42 type  3   force =     0.00376316    0.00042636   -0.00150907
     atom   43 type  3   force =    -0.00057207    0.00518209   -0.00006216
     atom   44 type  3   force =    -0.00057207    0.00518209    0.00006216
     atom   45 type  3   force =    -0.00079530    0.00117395   -0.00298998
     atom   46 type  3   force =    -0.00079530    0.00117395    0.00298998
     The non-local contrib.  to forces
     atom    1 type  1   force =     1.72130768    0.46927776    0.26936255
     atom    2 type  1   force =     0.00386265   -0.01538480    1.22413222
     atom    3 type  1   force =     0.00248319    1.38720296   -0.26412249
     atom    4 type  1   force =     0.01740854   -1.11464691   -0.59557781
     atom    5 type  2   force =    -0.00664494    0.00030381    0.03637608
     atom    6 type  2   force =     0.00512934    0.00158426    0.04232371
     atom    7 type  1   force =     0.05107062   -0.02332474   -0.09404757
     atom    8 type  1   force =    -0.07858149   -0.02554855   -0.03464370
     atom    9 type  2   force =     0.00829824    0.00649935    0.03917461
     atom   10 type  2   force =     0.00019029    0.00441474   -0.02913161
     atom   11 type  1   force =     0.02254964    0.03005740   -0.04318738
     atom   12 type  1   force =    -0.04339497    0.00691975   -0.00718043
     atom   13 type  1   force =     0.01144174   -0.03751759   -0.00725887
     atom   14 type  1   force =     0.00767745    0.04565155   -0.00279976
     atom   15 type  1   force =     0.01382382   -0.01207036   -0.00054412
     atom   16 type  1   force =     0.02025392    0.01127448    0.22473568
     atom   17 type  2   force =     0.01000746    0.00042957    0.00000000
     atom   18 type  2   force =     0.01426981    0.00039414    0.00000000
     atom   19 type  1   force =     0.01845763    0.04682234    0.00000000
     atom   20 type  1   force =    -0.03079010    0.04743704    0.00000000
     atom   21 type  2   force =    -0.00176490   -0.00074007    0.00000000
     atom   22 type  2   force =     0.01252892   -0.00270871    0.00000000
     atom   23 type  1   force =     0.00723962   -0.05003469    0.00000000
     atom   24 type  1   force =    -0.01853944   -0.05101385    0.00000000
     atom   25 type  1   force =     0.01382382   -0.01207036    0.00054412
     atom   26 type  1   force =     0.02025392    0.01127448   -0.22473568
     atom   27 type  1   force =     0.01144174   -0.03751759    0.00725887
     atom   28 type  1   force =     0.00767745    0.04565155    0.00279976
     atom   29 type  2   force =    -0.00664494    0.00030381   -0.03637608
     atom   30 type  2   force =     0.00512934    0.00158426   -0.04232371
     atom   31 type  1   force =     0.05107062   -0.02332474    0.09404757
     atom   32 type  1   force =    -0.07858149   -0.02554855    0.03464370
     atom   33 type  2   force =     0.00829824    0.00649935   -0.03917461
     atom   34 type  2   force =     0.00019029    0.00441474    0.02913161
     atom   35 type  1   force =     0.02254964    0.03005740    0.04318738
     atom   36 type  1   force =    -0.04339497    0.00691975    0.00718043
     atom   37 type  1   force =     0.00248319    1.38720296    0.26412249
     atom   38 type  1   force =     0.01740854   -1.11464691    0.59557781
     atom   39 type  1   force =     1.72130768    0.46927776   -0.26936255
     atom   40 type  1   force =     0.00386265   -0.01538480   -1.22413222
     atom   41 type  3   force =    -0.09369411   -0.02623237    0.04615995
     atom   42 type  3   force =    -0.09369411   -0.02623237   -0.04615995
     atom   43 type  3   force =     0.00018345   -0.07771530    0.07364848
     atom   44 type  3   force =     0.00018345   -0.07771530   -0.07364848
     atom   45 type  3   force =    -0.00137011    0.06027996    0.09318118
     atom   46 type  3   force =    -0.00137011    0.06027996   -0.09318118
     The ionic contribution  to forces
     atom    1 type  1   force =    -3.12786418   -0.77216591  -95.21593973
     atom    2 type  1   force =     0.06560179    0.20908500 -100.47937375
     atom    3 type  1   force =    -0.04388187   -2.79716782  -91.61411916
     atom    4 type  1   force =    -0.00696076    1.90342203  -90.98582155
     atom    5 type  2   force =     0.30862379   -0.25612454 -169.26342772
     atom    6 type  2   force =    -0.21305827   -0.43200794 -169.07463449
     atom    7 type  1   force =     0.55528964   -0.40427387  -62.01379199
     atom    8 type  1   force =    -0.47176324   -0.43962034  -63.32866892
     atom    9 type  2   force =    -0.31668491    0.98261562 -169.20746180
     atom   10 type  2   force =     0.44107474   -0.23357487 -174.04218378
     atom   11 type  1   force =     0.46651479    0.39806046  -63.60479050
     atom   12 type  1   force =    -0.35621540    0.58768812  -63.89708905
     atom   13 type  1   force =    -0.11240620   -0.01367814  -37.97799132
     atom   14 type  1   force =     0.02454239   -0.20475992  -37.98151432
     atom   15 type  1   force =    -0.27165433    0.07764292  -25.34026727
     atom   16 type  1   force =    -0.02480800    0.09166928  -27.49158222
     atom   17 type  2   force =     0.11775811   -0.10220189   -0.00045767
     atom   18 type  2   force =     0.34079569    0.26991812   -0.00045592
     atom   19 type  1   force =     0.03300230    1.33436279   -0.00008323
     atom   20 type  1   force =    -0.06868072    1.39928225   -0.00008213
     atom   21 type  2   force =     1.64807576    0.08236970   -0.00025457
     atom   22 type  2   force =    -1.32415305   -0.00339430   -0.00025083
     atom   23 type  1   force =     0.02692856   -1.37657113   -0.00008281
     atom   24 type  1   force =    -0.08962691   -1.37409368   -0.00008223
     atom   25 type  1   force =    -0.27166320    0.07764264   25.34005215
     atom   26 type  1   force =    -0.02481164    0.09166933   27.49142895
     atom   27 type  1   force =    -0.11240777   -0.01367883   37.97829577
     atom   28 type  1   force =     0.02454173   -0.20476418   37.98182227
     atom   29 type  2   force =     0.30862879   -0.25612468  169.26370430
     atom   30 type  2   force =    -0.21306303   -0.43200839  169.07491334
     atom   31 type  1   force =     0.55529347   -0.40430246   62.01385533
     atom   32 type  1   force =    -0.47176630   -0.43964648   63.32873404
     atom   33 type  2   force =    -0.31669670    0.98262172  169.20758679
     atom   34 type  2   force =     0.44108066   -0.23358096  174.04233061
     atom   35 type  1   force =     0.46651332    0.39808990   63.60485172
     atom   36 type  1   force =    -0.35621291    0.58771468   63.89715427
     atom   37 type  1   force =    -0.04388417   -2.79740576   91.61412687
     atom   38 type  1   force =    -0.00696223    1.90364183   90.98573305
     atom   39 type  1   force =    -3.12794962   -0.77218529   95.21604643
     atom   40 type  1   force =     0.06560445    0.20908323  100.47944245
     atom   41 type  3   force =     2.70549387    0.86131486  -16.43797785
     atom   42 type  3   force =     2.70558007    0.86133825   16.43799804
     atom   43 type  3   force =    -0.01815256    1.90014869  -17.48036760
     atom   44 type  3   force =    -0.01815256    1.90038590   17.48046322
     atom   45 type  3   force =     0.05426625   -1.57310679  -17.94456107
     atom   46 type  3   force =     0.05427036   -1.57332914   17.94477388
     The local contribution  to forces
     atom    1 type  1   force =     1.33376411    0.33240206   94.91376678
     atom    2 type  1   force =    -0.00636181   -0.24987316   99.20512372
     atom    3 type  1   force =     0.02514700    1.39634685   91.89233583
     atom    4 type  1   force =     0.00361404   -0.75485505   91.63496048
     atom    5 type  2   force =    -0.31303754    0.26322395  169.26931788
     atom    6 type  2   force =     0.22082016    0.43551195  169.04468306
     atom    7 type  1   force =    -0.59937099    0.43463790   62.10705363
     atom    8 type  1   force =     0.54279260    0.47732823   63.34553442
     atom    9 type  2   force =     0.27577328   -0.98360899  169.13536623
     atom   10 type  2   force =    -0.40654410    0.20574234  174.03565436
     atom   11 type  1   force =    -0.49429572   -0.43813743   63.65326528
     atom   12 type  1   force =     0.40478057   -0.60905401   63.88815354
     atom   13 type  1   force =     0.09710420    0.04896139   37.98234798
     atom   14 type  1   force =    -0.02862827    0.16194582   37.98694607
     atom   15 type  1   force =     0.25392788   -0.06459947   25.33867378
     atom   16 type  1   force =     0.00627331   -0.10415060   27.27118876
     atom   17 type  2   force =    -0.12980815    0.10215027   -0.00582404
     atom   18 type  2   force =    -0.35198927   -0.26978144   -0.00583704
     atom   19 type  1   force =    -0.05094006   -1.38097363   -0.00244557
     atom   20 type  1   force =     0.09821980   -1.44627717   -0.00244731
     atom   21 type  2   force =    -1.64388636   -0.08220107   -0.00601885
     atom   22 type  2   force =     1.31280235    0.00577273   -0.00602541
     atom   23 type  1   force =    -0.03562252    1.42640744   -0.00244663
     atom   24 type  1   force =     0.10881876    1.42507023   -0.00244693
     atom   25 type  1   force =     0.25391985   -0.06460054  -25.34044542
     atom   26 type  1   force =     0.00627116   -0.10415771  -27.27295518
     atom   27 type  1   force =     0.09710402    0.04896206  -37.98411902
     atom   28 type  1   force =    -0.02862854    0.16194188  -37.98871324
     atom   29 type  2   force =    -0.31303118    0.26321923 -169.27537356
     atom   30 type  2   force =     0.22081570    0.43551563 -169.05073508
     atom   31 type  1   force =    -0.59935487    0.43467047  -62.10949516
     atom   32 type  1   force =     0.54277684    0.47736086  -63.34798625
     atom   33 type  2   force =     0.27577101   -0.98364289 -169.14122747
     atom   34 type  2   force =    -0.40656254    0.20576374 -174.04137537
     atom   35 type  1   force =    -0.49426976   -0.43817092  -63.65571396
     atom   36 type  1   force =     0.40475611   -0.60908654  -63.89060722
     atom   37 type  1   force =     0.02514988    1.39645020  -91.89610506
     atom   38 type  1   force =     0.00361265   -0.75494637  -91.63871265
     atom   39 type  1   force =     1.33379652    0.33238677  -94.91533129
     atom   40 type  1   force =    -0.00638446   -0.24985021  -99.20651254
     atom   41 type  3   force =    -2.62343056   -0.83753874   16.40287506
     atom   42 type  3   force =    -2.62343056   -0.83753874  -16.40287506
     atom   43 type  3   force =     0.01221903   -1.81632035   17.42156788
     atom   44 type  3   force =     0.01221903   -1.81632035  -17.42156788
     atom   45 type  3   force =    -0.05027322    1.52192935   17.88589313
     atom   46 type  3   force =    -0.05027322    1.52192935  -17.88589313
     The core correction contribution to forces
     atom    1 type  1   force =    -0.01736295   -0.00471302   -0.00315072
     atom    2 type  1   force =     0.00005775    0.00008533   -0.01032445
     atom    3 type  1   force =    -0.00003982   -0.01380607    0.00205614
     atom    4 type  1   force =    -0.00014563    0.01117213    0.00550720
     atom    5 type  2   force =     0.00000000    0.00000000    0.00000000
     atom    6 type  2   force =     0.00000000    0.00000000    0.00000000
     atom    7 type  1   force =    -0.00081073   -0.00041406    0.00096975
     atom    8 type  1   force =     0.00109981   -0.00032669    0.00039098
     atom    9 type  2   force =     0.00000000    0.00000000    0.00000000
     atom   10 type  2   force =     0.00000000    0.00000000    0.00000000
     atom   11 type  1   force =    -0.00053062    0.00041012    0.00050455
     atom   12 type  1   force =     0.00076480    0.00053329    0.00008563
     atom   13 type  1   force =    -0.00012626    0.00046295    0.00008873
     atom   14 type  1   force =    -0.00007672   -0.00053743    0.00000786
     atom   15 type  1   force =    -0.00008673    0.00017074   -0.00011469
     atom   16 type  1   force =    -0.00021183   -0.00019578   -0.00300775
     atom   17 type  2   force =     0.00000000    0.00000000    0.00000000
     atom   18 type  2   force =     0.00000000    0.00000000    0.00000000
     atom   19 type  1   force =    -0.00014451   -0.00020179   -0.00000199
     atom   20 type  1   force =     0.00031350   -0.00023206   -0.00000199
     atom   21 type  2   force =     0.00000000    0.00000000    0.00000000
     atom   22 type  2   force =     0.00000000    0.00000000    0.00000000
     atom   23 type  1   force =    -0.00003338    0.00024712   -0.00000196
     atom   24 type  1   force =     0.00020923    0.00024990   -0.00000198
     atom   25 type  1   force =    -0.00008674    0.00017083    0.00011243
     atom   26 type  1   force =    -0.00021178   -0.00019588    0.00300570
     atom   27 type  1   force =    -0.00012628    0.00046296   -0.00009087
     atom   28 type  1   force =    -0.00007672   -0.00053750   -0.00001000
     atom   29 type  2   force =     0.00000000    0.00000000    0.00000000
     atom   30 type  2   force =     0.00000000    0.00000000    0.00000000
     atom   31 type  1   force =    -0.00081072   -0.00041397   -0.00097150
     atom   32 type  1   force =     0.00109977   -0.00032655   -0.00039281
     atom   33 type  2   force =     0.00000000    0.00000000    0.00000000
     atom   34 type  2   force =     0.00000000    0.00000000    0.00000000
     atom   35 type  1   force =    -0.00053056    0.00041002   -0.00050644
     atom   36 type  1   force =     0.00076478    0.00053315   -0.00008746
     atom   37 type  1   force =    -0.00003980   -0.01380825   -0.00206055
     atom   38 type  1   force =    -0.00014563    0.01117401   -0.00551225
     atom   39 type  1   force =    -0.01736371   -0.00471319    0.00314817
     atom   40 type  1   force =     0.00005766    0.00008551    0.01032267
     atom   41 type  3   force =     0.00000000    0.00000000    0.00000000
     atom   42 type  3   force =     0.00000000    0.00000000    0.00000000
     atom   43 type  3   force =     0.00000000    0.00000000    0.00000000
     atom   44 type  3   force =     0.00000000    0.00000000    0.00000000
     atom   45 type  3   force =     0.00000000    0.00000000    0.00000000
     atom   46 type  3   force =     0.00000000    0.00000000    0.00000000
     The Hubbard contrib.    to forces
     atom    1 type  1   force =     0.00000000    0.00000000    0.00000000
     atom    2 type  1   force =     0.00000000    0.00000000    0.00000000
     atom    3 type  1   force =     0.00000000    0.00000000    0.00000000
     atom    4 type  1   force =     0.00000000    0.00000000    0.00000000
     atom    5 type  2   force =     0.00000000    0.00000000    0.00000000
     atom    6 type  2   force =     0.00000000    0.00000000    0.00000000
     atom    7 type  1   force =     0.00000000    0.00000000    0.00000000
     atom    8 type  1   force =     0.00000000    0.00000000    0.00000000
     atom    9 type  2   force =     0.00000000    0.00000000    0.00000000
     atom   10 type  2   force =     0.00000000    0.00000000    0.00000000
     atom   11 type  1   force =     0.00000000    0.00000000    0.00000000
     atom   12 type  1   force =     0.00000000    0.00000000    0.00000000
     atom   13 type  1   force =     0.00000000    0.00000000    0.00000000
     atom   14 type  1   force =     0.00000000    0.00000000    0.00000000
     atom   15 type  1   force =     0.00000000    0.00000000    0.00000000
     atom   16 type  1   force =     0.00000000    0.00000000    0.00000000
     atom   17 type  2   force =     0.00000000    0.00000000    0.00000000
     atom   18 type  2   force =     0.00000000    0.00000000    0.00000000
     atom   19 type  1   force =     0.00000000    0.00000000    0.00000000
     atom   20 type  1   force =     0.00000000    0.00000000    0.00000000
     atom   21 type  2   force =     0.00000000    0.00000000    0.00000000
     atom   22 type  2   force =     0.00000000    0.00000000    0.00000000
     atom   23 type  1   force =     0.00000000    0.00000000    0.00000000
     atom   24 type  1   force =     0.00000000    0.00000000    0.00000000
     atom   25 type  1   force =     0.00000000    0.00000000    0.00000000
     atom   26 type  1   force =     0.00000000    0.00000000    0.00000000
     atom   27 type  1   force =     0.00000000    0.00000000    0.00000000
     atom   28 type  1   force =     0.00000000    0.00000000    0.00000000
     atom   29 type  2   force =     0.00000000    0.00000000    0.00000000
     atom   30 type  2   force =     0.00000000    0.00000000    0.00000000
     atom   31 type  1   force =     0.00000000    0.00000000    0.00000000
     atom   32 type  1   force =     0.00000000    0.00000000    0.00000000
     atom   33 type  2   force =     0.00000000    0.00000000    0.00000000
     atom   34 type  2   force =     0.00000000    0.00000000    0.00000000
     atom   35 type  1   force =     0.00000000    0.00000000    0.00000000
     atom   36 type  1   force =     0.00000000    0.00000000    0.00000000
     atom   37 type  1   force =     0.00000000    0.00000000    0.00000000
     atom   38 type  1   force =     0.00000000    0.00000000    0.00000000
     atom   39 type  1   force =     0.00000000    0.00000000    0.00000000
     atom   40 type  1   force =     0.00000000    0.00000000    0.00000000
     atom   41 type  3   force =     0.00000000    0.00000000    0.00000000
     atom   42 type  3   force =     0.00000000    0.00000000    0.00000000
     atom   43 type  3   force =     0.00000000    0.00000000    0.00000000
     atom   44 type  3   force =     0.00000000    0.00000000    0.00000000
     atom   45 type  3   force =     0.00000000    0.00000000    0.00000000
     atom   46 type  3   force =     0.00000000    0.00000000    0.00000000
     The SCF correction term to forces
     atom    1 type  1   force =     0.00000473   -0.00000351   -0.00000803
     atom    2 type  1   force =    -0.00000583   -0.00000836   -0.00001534
     atom    3 type  1   force =    -0.00000047    0.00000573   -0.00001569
     atom    4 type  1   force =     0.00000054    0.00000881   -0.00000624
     atom    5 type  2   force =    -0.00002263    0.00000839   -0.00003246
     atom    6 type  2   force =     0.00002253    0.00000914   -0.00002407
     atom    7 type  1   force =    -0.00001341    0.00000760   -0.00001738
     atom    8 type  1   force =     0.00001366    0.00000617   -0.00001036
     atom    9 type  2   force =    -0.00000352   -0.00000658   -0.00004262
     atom   10 type  2   force =     0.00000160   -0.00001261   -0.00003305
     atom   11 type  1   force =    -0.00001498   -0.00001029   -0.00001417
     atom   12 type  1   force =     0.00001529   -0.00000883   -0.00000690
     atom   13 type  1   force =    -0.00000440    0.00000157   -0.00000387
     atom   14 type  1   force =     0.00000434    0.00000159   -0.00000305
     atom   15 type  1   force =    -0.00001997   -0.00000087   -0.00000865
     atom   16 type  1   force =     0.00001853   -0.00000118   -0.00000017
     atom   17 type  2   force =    -0.00001618    0.00000150    0.00001238
     atom   18 type  2   force =     0.00001630    0.00000181    0.00001238
     atom   19 type  1   force =    -0.00000645   -0.00001176    0.00000458
     atom   20 type  1   force =     0.00000634    0.00000991    0.00000458
     atom   21 type  2   force =    -0.00001246   -0.00000161    0.00001211
     atom   22 type  2   force =     0.00001471   -0.00000177    0.00001209
     atom   23 type  1   force =    -0.00000643    0.00001223    0.00000458
     atom   24 type  1   force =     0.00000638   -0.00000940    0.00000458
     atom   25 type  1   force =    -0.00001997   -0.00000087    0.00001681
     atom   26 type  1   force =     0.00001853   -0.00000118    0.00000809
     atom   27 type  1   force =    -0.00000439    0.00000157    0.00001026
     atom   28 type  1   force =     0.00000434    0.00000160    0.00000942
     atom   29 type  2   force =    -0.00002267    0.00000841    0.00003813
     atom   30 type  2   force =     0.00002257    0.00000915    0.00002976
     atom   31 type  1   force =    -0.00001345    0.00000753    0.00001958
     atom   32 type  1   force =     0.00001370    0.00000610    0.00001241
     atom   33 type  2   force =    -0.00000352   -0.00000659    0.00004794
     atom   34 type  2   force =     0.00000161   -0.00001263    0.00003700
     atom   35 type  1   force =    -0.00001502   -0.00001022    0.00001618
     atom   36 type  1   force =     0.00001533   -0.00000877    0.00000890
     atom   37 type  1   force =    -0.00000048    0.00000576    0.00001382
     atom   38 type  1   force =     0.00000054    0.00000880    0.00000443
     atom   39 type  1   force =     0.00000473   -0.00000351    0.00000509
     atom   40 type  1   force =    -0.00000582   -0.00000836    0.00001244
     atom   41 type  3   force =    -0.00000176   -0.00000096   -0.00000056
     atom   42 type  3   force =    -0.00000177   -0.00000096    0.00000006
     atom   43 type  3   force =     0.00000017    0.00000094   -0.00000126
     atom   44 type  3   force =     0.00000017    0.00000091    0.00000081
     atom   45 type  3   force =    -0.00000014    0.00000014   -0.00000242
     atom   46 type  3   force =    -0.00000015    0.00000017    0.00000195

     Total force =     0.018339     Total SCF correction =     0.000152

     BFGS Geometry Optimization
     Energy error            =      0.0E+00 Ry
     Gradient error          =      5.2E-03 Ry/Bohr

     number of scf cycles    =   1
     number of bfgs steps    =   0

     energy             new  =   -3435.2490448039 Ry

     new trust radius        =       0.0052139461 bohr
     new conv_thr            =       0.0000000010 Ry


ATOMIC_POSITIONS (crystal)
O            -0.0040330853        0.4698549219        0.2688782553
O             0.4900238041        0.5074620518        0.2721993766
O            -0.0004910630       -0.0021897335        0.3021996806
O             0.5000234915        0.0007045745        0.3034555237
Ru            0.2497984772       -0.0018785719        0.3593815068
Ru            0.7495562073       -0.0017591864        0.3593576500
O             0.2474876523        0.3074277748        0.3592231934
O             0.7518493835        0.3075118521        0.3574389325
Ru           -0.0003790644        0.4982835579        0.3570511792
Ru            0.5004549376        0.4971630186        0.3504209773
O             0.2443131872        0.6900633224        0.3570922550
O             0.7541543949        0.6886410522        0.3569540040
O            -0.0002212652        0.0006529207        0.4118492799
O             0.4999242748       -0.0036168246        0.4118675236
O             0.0006860057        0.5001850387        0.4462392086
O             0.4997953059        0.5009542247        0.4416791857
Ru            0.0013983928       -0.0000079754        0.5000010000
Ru            0.5013845491        0.0012837818        0.5000010000
O             0.2525006422        0.1888049435        0.5000010000
O             0.7519419474        0.1884344780        0.5000010000
Ru            0.2521982428        0.5009008461        0.5000010000
Ru            0.7451041329        0.5006685408        0.5000010000
O             0.2531700278        0.8128506224        0.5000010000
O             0.7515930586        0.8125487271        0.5000010000
O             0.0006860057        0.5001850387        0.5537617914
O             0.4997953059        0.5009542247        0.5583218143
O            -0.0002212652        0.0006529207        0.5881517201
O             0.4999242748       -0.0036168246        0.5881334764
Ru            0.2497984772       -0.0018785719        0.6406194932
Ru            0.7495562073       -0.0017591864        0.6406433500
O             0.2474876523        0.3074277748        0.6407778066
O             0.7518493835        0.3075118521        0.6425620675
Ru           -0.0003790644        0.4982835579        0.6429498208
Ru            0.5004549376        0.4971630186        0.6495800227
O             0.2443131872        0.6900633224        0.6429087450
O             0.7541543949        0.6886410522        0.6430469960
O            -0.0004910630       -0.0021897335        0.6978023194
O             0.5000234915        0.0007045745        0.6965464763
O            -0.0040330853        0.4698549219        0.7311227447
O             0.4900238041        0.5074620518        0.7278016234
H             0.1291368422        0.5093086305        0.2509551062
H             0.1291368422        0.5093086305        0.7490448938
H            -0.0007772217        0.1168560695        0.2721180518
H            -0.0007772217        0.1168560695        0.7278819482
H             0.5016872386        0.9116343238        0.2667611740
H             0.5016872386        0.9116343238        0.7332388260



     Writing config-only to output data dir /storage/home/mgm6007/ixd4/Maria/Strain2_Files/RuO2-110-0-025/RuO2-110-0-025.save/
     NEW-OLD atomic charge density approx. for the potential

     Check: negative core charge=   -0.000001

     negative rho (up, down):  1.447E-04 0.000E+00

     add environment contribution to local potential
     Polarization accuracy = 2.9E-12, # of iterations =  45

     total cpu time spent up to now is     8460.2 secs

     per-process dynamical memory:   217.1 Mb

     Self-consistent Calculation

     iteration #  1     ecut=    50.00 Ry     beta= 0.70
     Davidson diagonalization with overlap
     ethr =  1.00E-06,  avg # of iterations =  3.0

     Threshold (ethr) on eigenvalues was too large:
     Diagonalizing with lowered threshold

     Davidson diagonalization with overlap
     ethr =  2.37E-08,  avg # of iterations =  2.0

     negative rho (up, down):  1.482E-04 0.000E+00

     add environment contribution to local potential
     Polarization accuracy = 2.9E-12, # of iterations =  45

     total cpu time spent up to now is     8620.2 secs

     total energy              =   -3435.24930624 Ry
     estimated scf accuracy    <       0.00009409 Ry
     electrostatic embedding   =      -0.04972446 Ry
     cavitation energy         =       0.02113544 Ry
     PV energy                 =      -0.08127320 Ry
     correction to one-el term =     186.84315144 Ry

     iteration #  2     ecut=    50.00 Ry     beta= 0.70
     Davidson diagonalization with overlap
     ethr =  2.57E-08,  avg # of iterations =  2.0

     negative rho (up, down):  1.446E-04 0.000E+00

     add environment contribution to local potential
     Polarization accuracy = 2.7E-12, # of iterations =  46

     total cpu time spent up to now is     8809.6 secs

     total energy              =   -3435.24931352 Ry
     estimated scf accuracy    <       0.00008109 Ry
     electrostatic embedding   =      -0.04977325 Ry
     cavitation energy         =       0.02113737 Ry
     PV energy                 =      -0.08127129 Ry
     correction to one-el term =     186.83972944 Ry

     iteration #  3     ecut=    50.00 Ry     beta= 0.70
     Davidson diagonalization with overlap
     ethr =  2.22E-08,  avg # of iterations =  1.0

     negative rho (up, down):  1.432E-04 0.000E+00

     add environment contribution to local potential
     Polarization accuracy = 2.7E-12, # of iterations =  46

     total cpu time spent up to now is     8996.4 secs

     total energy              =   -3435.24931906 Ry
     estimated scf accuracy    <       0.00001637 Ry
     electrostatic embedding   =      -0.04977972 Ry
     cavitation energy         =       0.02113775 Ry
     PV energy                 =      -0.08127153 Ry
     correction to one-el term =     186.83639788 Ry

     iteration #  4     ecut=    50.00 Ry     beta= 0.70
     Davidson diagonalization with overlap
     ethr =  4.47E-09,  avg # of iterations =  1.0

     negative rho (up, down):  1.406E-04 0.000E+00

     add environment contribution to local potential
     Polarization accuracy = 5.1E-12, # of iterations =  46

     total cpu time spent up to now is     9169.8 secs

     total energy              =   -3435.24931988 Ry
     estimated scf accuracy    <       0.00000254 Ry
     electrostatic embedding   =      -0.04979995 Ry
     cavitation energy         =       0.02113827 Ry
     PV energy                 =      -0.08127080 Ry
     correction to one-el term =     186.83640074 Ry

     iteration #  5     ecut=    50.00 Ry     beta= 0.70
     Davidson diagonalization with overlap
     ethr =  6.93E-10,  avg # of iterations =  2.0

     negative rho (up, down):  1.393E-04 0.000E+00

     add environment contribution to local potential
     Polarization accuracy = 2.7E-12, # of iterations =  46

     total cpu time spent up to now is     9325.4 secs

     total energy              =   -3435.24932017 Ry
     estimated scf accuracy    <       0.00000200 Ry
     electrostatic embedding   =      -0.04981503 Ry
     cavitation energy         =       0.02113850 Ry
     PV energy                 =      -0.08127071 Ry
     correction to one-el term =     186.83488301 Ry

     iteration #  6     ecut=    50.00 Ry     beta= 0.70
     Davidson diagonalization with overlap
     ethr =  5.46E-10,  avg # of iterations =  1.0

     negative rho (up, down):  1.380E-04 0.000E+00

     add environment contribution to local potential
     Polarization accuracy = 2.8E-12, # of iterations =  45

     total cpu time spent up to now is     9486.6 secs

     total energy              =   -3435.24932030 Ry
     estimated scf accuracy    <       0.00000008 Ry
     electrostatic embedding   =      -0.04982198 Ry
[...]
     atom   22 type  2   force =     1.31512747    0.14717075   -0.00603010
     atom   23 type  1   force =    -0.13744187    1.35497352   -0.00244668
     atom   24 type  1   force =     0.11560699    1.36943979   -0.00245073
     atom   25 type  1   force =     0.15353269   -0.17319691  -25.14192261
     atom   26 type  1   force =    -0.19545896   -0.25435362  -27.46285696
     atom   27 type  1   force =     0.11119795    0.31559888  -37.96211922
     atom   28 type  1   force =    -0.11656682    0.44465406  -37.97253409
     atom   29 type  2   force =    -0.23647411    1.05469942 -169.10535692
     atom   30 type  2   force =     0.24904770    1.20304751 -169.94851615
     atom   31 type  1   force =    -0.68513524    0.35036257  -60.03717720
     atom   32 type  1   force =     0.52882433    0.37347450  -62.33066498
     atom   33 type  2   force =     0.92823559   -1.73186957 -168.30167515
     atom   34 type  2   force =    -0.90874405   -0.89624035 -174.10486233
     atom   35 type  1   force =    -0.56783956   -0.60953410  -64.56996106
     atom   36 type  1   force =     0.39007954   -0.73857734  -65.68485020
     atom   37 type  1   force =     0.17857017    2.01677250  -92.14796573
     atom   38 type  1   force =    -0.12853842   -0.21808947  -91.45685315
     atom   39 type  1   force =     1.46806976    0.00442174  -94.81286454
     atom   40 type  1   force =    -0.15720999   -0.18325827  -99.17594593
     atom   41 type  3   force =    -2.56796254   -0.93668372   16.34366289
     atom   42 type  3   force =    -2.56796254   -0.93668372  -16.34366289
     atom   43 type  3   force =     0.02411618   -1.75639878   16.75379584
     atom   44 type  3   force =     0.02411618   -1.75639878  -16.75379584
     atom   45 type  3   force =    -0.02629279    1.01039410   18.14450217
     atom   46 type  3   force =    -0.02629279    1.01039410  -18.14450217
     The core correction contribution to forces
     atom    1 type  1   force =    -0.01667976   -0.00455360   -0.00382540
     atom    2 type  1   force =    -0.00006747   -0.00009663   -0.01046119
     atom    3 type  1   force =    -0.00018519   -0.01358858   -0.00226144
     atom    4 type  1   force =     0.00007434    0.00697617    0.00777748
     atom    5 type  2   force =     0.00000000    0.00000000    0.00000000
     atom    6 type  2   force =     0.00000000    0.00000000    0.00000000
     atom    7 type  1   force =    -0.00079730   -0.00037274    0.00170659
     atom    8 type  1   force =     0.00118394   -0.00028993    0.00087748
     atom    9 type  2   force =     0.00000000    0.00000000    0.00000000
     atom   10 type  2   force =     0.00000000    0.00000000    0.00000000
     atom   11 type  1   force =    -0.00025703    0.00044001    0.00009911
     atom   12 type  1   force =     0.00060056    0.00051162   -0.00053243
     atom   13 type  1   force =    -0.00005015    0.00017918    0.00012077
     atom   14 type  1   force =     0.00001761   -0.00077765   -0.00006227
     atom   15 type  1   force =     0.00027403    0.00041948    0.00024941
     atom   16 type  1   force =     0.00001666   -0.00004554   -0.00309965
     atom   17 type  2   force =     0.00000000    0.00000000    0.00000000
     atom   18 type  2   force =     0.00000000    0.00000000    0.00000000
     atom   19 type  1   force =    -0.00038569   -0.00024625   -0.00000201
     atom   20 type  1   force =     0.00021947   -0.00019341   -0.00000202
     atom   21 type  2   force =     0.00000000    0.00000000    0.00000000
     atom   22 type  2   force =     0.00000000    0.00000000    0.00000000
     atom   23 type  1   force =    -0.00020219    0.00030857   -0.00000194
     atom   24 type  1   force =     0.00003765    0.00021294   -0.00000196
     atom   25 type  1   force =     0.00027399    0.00041963   -0.00025168
     atom   26 type  1   force =     0.00001668   -0.00004561    0.00309757
     atom   27 type  1   force =    -0.00005016    0.00017916   -0.00012297
     atom   28 type  1   force =     0.00001761   -0.00077781    0.00006008
     atom   29 type  2   force =     0.00000000    0.00000000    0.00000000
     atom   30 type  2   force =     0.00000000    0.00000000    0.00000000
     atom   31 type  1   force =    -0.00079731   -0.00037270   -0.00170829
     atom   32 type  1   force =     0.00118391   -0.00028982   -0.00087929
     atom   33 type  2   force =     0.00000000    0.00000000    0.00000000
     atom   34 type  2   force =     0.00000000    0.00000000    0.00000000
     atom   35 type  1   force =    -0.00025692    0.00043993   -0.00010103
     atom   36 type  1   force =     0.00060047    0.00051148    0.00053055
     atom   37 type  1   force =    -0.00018516   -0.01359052    0.00225782
     atom   38 type  1   force =     0.00007433    0.00697734   -0.00778299
     atom   39 type  1   force =    -0.01668052   -0.00455370    0.00382291
     atom   40 type  1   force =    -0.00006761   -0.00009655    0.01045936
     atom   41 type  3   force =     0.00000000    0.00000000    0.00000000
     atom   42 type  3   force =     0.00000000    0.00000000    0.00000000
     atom   43 type  3   force =     0.00000000    0.00000000    0.00000000
     atom   44 type  3   force =     0.00000000    0.00000000    0.00000000
     atom   45 type  3   force =     0.00000000    0.00000000    0.00000000
     atom   46 type  3   force =     0.00000000    0.00000000    0.00000000
     The Hubbard contrib.    to forces
     atom    1 type  1   force =     0.00000000    0.00000000    0.00000000
     atom    2 type  1   force =     0.00000000    0.00000000    0.00000000
     atom    3 type  1   force =     0.00000000    0.00000000    0.00000000
     atom    4 type  1   force =     0.00000000    0.00000000    0.00000000
     atom    5 type  2   force =     0.00000000    0.00000000    0.00000000
     atom    6 type  2   force =     0.00000000    0.00000000    0.00000000
     atom    7 type  1   force =     0.00000000    0.00000000    0.00000000
     atom    8 type  1   force =     0.00000000    0.00000000    0.00000000
     atom    9 type  2   force =     0.00000000    0.00000000    0.00000000
     atom   10 type  2   force =     0.00000000    0.00000000    0.00000000
     atom   11 type  1   force =     0.00000000    0.00000000    0.00000000
     atom   12 type  1   force =     0.00000000    0.00000000    0.00000000
     atom   13 type  1   force =     0.00000000    0.00000000    0.00000000
     atom   14 type  1   force =     0.00000000    0.00000000    0.00000000
     atom   15 type  1   force =     0.00000000    0.00000000    0.00000000
     atom   16 type  1   force =     0.00000000    0.00000000    0.00000000
     atom   17 type  2   force =     0.00000000    0.00000000    0.00000000
     atom   18 type  2   force =     0.00000000    0.00000000    0.00000000
     atom   19 type  1   force =     0.00000000    0.00000000    0.00000000
     atom   20 type  1   force =     0.00000000    0.00000000    0.00000000
     atom   21 type  2   force =     0.00000000    0.00000000    0.00000000
     atom   22 type  2   force =     0.00000000    0.00000000    0.00000000
     atom   23 type  1   force =     0.00000000    0.00000000    0.00000000
     atom   24 type  1   force =     0.00000000    0.00000000    0.00000000
     atom   25 type  1   force =     0.00000000    0.00000000    0.00000000
     atom   26 type  1   force =     0.00000000    0.00000000    0.00000000
     atom   27 type  1   force =     0.00000000    0.00000000    0.00000000
     atom   28 type  1   force =     0.00000000    0.00000000    0.00000000
     atom   29 type  2   force =     0.00000000    0.00000000    0.00000000
     atom   30 type  2   force =     0.00000000    0.00000000    0.00000000
     atom   31 type  1   force =     0.00000000    0.00000000    0.00000000
     atom   32 type  1   force =     0.00000000    0.00000000    0.00000000
     atom   33 type  2   force =     0.00000000    0.00000000    0.00000000
     atom   34 type  2   force =     0.00000000    0.00000000    0.00000000
     atom   35 type  1   force =     0.00000000    0.00000000    0.00000000
     atom   36 type  1   force =     0.00000000    0.00000000    0.00000000
     atom   37 type  1   force =     0.00000000    0.00000000    0.00000000
     atom   38 type  1   force =     0.00000000    0.00000000    0.00000000
     atom   39 type  1   force =     0.00000000    0.00000000    0.00000000
     atom   40 type  1   force =     0.00000000    0.00000000    0.00000000
     atom   41 type  3   force =     0.00000000    0.00000000    0.00000000
     atom   42 type  3   force =     0.00000000    0.00000000    0.00000000
     atom   43 type  3   force =     0.00000000    0.00000000    0.00000000
     atom   44 type  3   force =     0.00000000    0.00000000    0.00000000
     atom   45 type  3   force =     0.00000000    0.00000000    0.00000000
     atom   46 type  3   force =     0.00000000    0.00000000    0.00000000
     The SCF correction term to forces
     atom    1 type  1   force =     0.00000046   -0.00000013   -0.00000084
     atom    2 type  1   force =    -0.00000068   -0.00000075    0.00000043
     atom    3 type  1   force =     0.00000055   -0.00000006    0.00000045
     atom    4 type  1   force =    -0.00000061    0.00000070    0.00000091
     atom    5 type  2   force =    -0.00000017   -0.00000013    0.00000220
     atom    6 type  2   force =     0.00000050   -0.00000036    0.00000274
     atom    7 type  1   force =    -0.00000001    0.00000036    0.00000077
     atom    8 type  1   force =     0.00000002    0.00000056    0.00000091
     atom    9 type  2   force =     0.00000172    0.00000004    0.00000104
     atom   10 type  2   force =    -0.00000161   -0.00000007    0.00000115
     atom   11 type  1   force =     0.00000010   -0.00000020    0.00000037
     atom   12 type  1   force =    -0.00000007   -0.00000033    0.00000038
     atom   13 type  1   force =     0.00000087    0.00000007    0.00000104
     atom   14 type  1   force =    -0.00000060   -0.00000022    0.00000150
     atom   15 type  1   force =     0.00000158    0.00000001    0.00000049
     atom   16 type  1   force =    -0.00000072    0.00000026    0.00000102
     atom   17 type  2   force =     0.00000178   -0.00000005    0.00000060
     atom   18 type  2   force =    -0.00000133   -0.00000071    0.00000059
     atom   19 type  1   force =    -0.00000015   -0.00000006    0.00000022
     atom   20 type  1   force =    -0.00000075   -0.00000055    0.00000022
     atom   21 type  2   force =     0.00000061    0.00000058    0.00000057
     atom   22 type  2   force =    -0.00000233    0.00000036    0.00000057
     atom   23 type  1   force =     0.00000031   -0.00000016    0.00000022
     atom   24 type  1   force =    -0.00000111    0.00000042    0.00000022
     atom   25 type  1   force =     0.00000158    0.00000001   -0.00000010
     atom   26 type  1   force =    -0.00000072    0.00000026   -0.00000064
     atom   27 type  1   force =     0.00000087    0.00000007   -0.00000072
     atom   28 type  1   force =    -0.00000061   -0.00000022   -0.00000119
     atom   29 type  2   force =    -0.00000018   -0.00000012   -0.00000182
     atom   30 type  2   force =     0.00000051   -0.00000036   -0.00000236
     atom   31 type  1   force =    -0.00000002    0.00000035   -0.00000061
     atom   32 type  1   force =     0.00000003    0.00000055   -0.00000076
     atom   33 type  2   force =     0.00000172    0.00000003   -0.00000066
     atom   34 type  2   force =    -0.00000162   -0.00000007   -0.00000083
     atom   35 type  1   force =     0.00000009   -0.00000019   -0.00000024
     atom   36 type  1   force =    -0.00000007   -0.00000032   -0.00000025
     atom   37 type  1   force =     0.00000056   -0.00000006   -0.00000050
     atom   38 type  1   force =    -0.00000061    0.00000070   -0.00000095
     atom   39 type  1   force =     0.00000046   -0.00000014    0.00000073
     atom   40 type  1   force =    -0.00000068   -0.00000075   -0.00000053
     atom   41 type  3   force =    -0.00000002   -0.00000005   -0.00000002
     atom   42 type  3   force =    -0.00000002   -0.00000006    0.00000000
     atom   43 type  3   force =     0.00000007    0.00000011   -0.00000002
     atom   44 type  3   force =     0.00000007    0.00000011    0.00000001
     atom   45 type  3   force =    -0.00000006    0.00000001   -0.00000011
     atom   46 type  3   force =    -0.00000006    0.00000002    0.00000008

     Total force =     0.010114     Total SCF correction =     0.000009
     Energy error            =      1.6E-04 Ry
     Gradient error          =      2.8E-03 Ry/Bohr

     number of scf cycles    =  20
     number of bfgs steps    =  19

     energy             old  =   -3435.2558258691 Ry
     energy             new  =   -3435.2559861128 Ry

     CASE: energy            _new < energy            _old

     new trust radius        =       0.0186069111 bohr
     new conv_thr            =            1.6E-11 Ry


ATOMIC_POSITIONS (crystal)
O             0.0068399060        0.4486006757        0.2692867032
O             0.4843695882        0.4937793142        0.2720290350
O            -0.0003905111        0.0101030547        0.3013118037
O             0.4979266952       -0.0013411137        0.3041073782
Ru            0.2485883451       -0.0044314273        0.3592144131
Ru            0.7488327794       -0.0044526258        0.3587175104
O             0.2488805641        0.3050366490        0.3618597424
O             0.7499802259        0.3056276812        0.3587852430
Ru           -0.0003846655        0.4953647295        0.3577839753
Ru            0.5000996964        0.4941621817        0.3501727876
O             0.2422041433        0.6878317730        0.3558262775
O             0.7554808064        0.6856826487        0.3545851078
O            -0.0023584442       -0.0037999121        0.4113659527
O             0.4996380794       -0.0090980683        0.4119780688
O             0.0012902586        0.5016619965        0.4464476246
O             0.5001238059        0.5032039423        0.4422551896
Ru           -0.0017106455        0.0001415372        0.5000010000
Ru            0.4986441222        0.0012458566        0.5000010000
O             0.2478230749        0.1889009284        0.5000010000
O             0.7473978833        0.1890313084        0.5000010000
Ru            0.2547476038        0.5014287491        0.5000010000
Ru            0.7475205403        0.5013127447        0.5000010000
O             0.2477539965        0.8135642217        0.5000010000
O             0.7479375080        0.8130843456        0.5000010000
O             0.0012902586        0.5016619965        0.5535533754
O             0.5001238059        0.5032039423        0.5577458104
O            -0.0023584442       -0.0037999121        0.5886350473
O             0.4996380794       -0.0090980683        0.5880229312
Ru            0.2485883451       -0.0044314273        0.6407865869
Ru            0.7488327794       -0.0044526258        0.6412834896
O             0.2488805641        0.3050366490        0.6381412576
O             0.7499802259        0.3056276812        0.6412157570
Ru           -0.0003846655        0.4953647295        0.6422170247
Ru            0.5000996964        0.4941621817        0.6498282124
O             0.2422041433        0.6878317730        0.6441747225
O             0.7554808064        0.6856826487        0.6454158922
O            -0.0003905111        0.0101030547        0.6986901963
O             0.4979266952       -0.0013411137        0.6958946218
O             0.0068399060        0.4486006757        0.7307142968
O             0.4843695882        0.4937793142        0.7279719650
H             0.1423370948        0.4900160417        0.2531502623
H             0.1423370948        0.4900160417        0.7468497377
H             0.0017242620        0.1537200620        0.2791612137
H             0.0017242620        0.1537200620        0.7208387863
H             0.4973953285        0.9439785510        0.2626377734
H             0.4973953285        0.9439785510        0.7373622266



     Writing config-only to output data dir /storage/home/mgm6007/ixd4/Maria/Strain2_Files/RuO2-110-0-025/RuO2-110-0-025.save/
     NEW-OLD atomic charge density approx. for the potential

     Check: negative core charge=   -0.000001

     negative rho (up, down):  1.484E-04 0.000E+00

     add environment contribution to local potential
     Polarization accuracy = 2.9E-12, # of iterations =  47

     total cpu time spent up to now is   240017.6 secs

     per-process dynamical memory:   217.1 Mb

     Self-consistent Calculation

     iteration #  1     ecut=    50.00 Ry     beta= 0.70
     Davidson diagonalization with overlap
     ethr =  1.00E-06,  avg # of iterations =  3.5

     Threshold (ethr) on eigenvalues was too large:
     Diagonalizing with lowered threshold

     Davidson diagonalization with overlap
     ethr =  4.61E-08,  avg # of iterations =  3.0

     negative rho (up, down):  1.338E-04 0.000E+00

     add environment contribution to local potential
     Polarization accuracy = 7.1E-12, # of iterations =  45

     total cpu time spent up to now is   240845.2 secs

     total energy              =   -3435.25613584 Ry
     estimated scf accuracy    <       0.00019180 Ry
     electrostatic embedding   =      -0.05513956 Ry
     cavitation energy         =       0.02129929 Ry
     PV energy                 =      -0.08106225 Ry
     correction to one-el term =     188.09787112 Ry

     iteration #  2     ecut=    50.00 Ry     beta= 0.70
     Davidson diagonalization with overlap
     ethr =  5.24E-08,  avg # of iterations =  2.0

     negative rho (up, down):  1.275E-04 0.000E+00

     add environment contribution to local potential
     Polarization accuracy = 7.1E-12, # of iterations =  46

     total cpu time spent up to now is   241720.3 secs

     total energy              =   -3435.25613688 Ry
     estimated scf accuracy    <       0.00015331 Ry
     electrostatic embedding   =      -0.05488318 Ry
     cavitation energy         =       0.02128228 Ry
     PV energy                 =      -0.08107881 Ry
     correction to one-el term =     188.13759547 Ry

     iteration #  3     ecut=    50.00 Ry     beta= 0.70
     Davidson diagonalization with overlap
     ethr =  4.19E-08,  avg # of iterations =  1.0

     negative rho (up, down):  1.136E-04 0.000E+00

     add environment contribution to local potential
     Polarization accuracy = 6.2E-12, # of iterations =  45

     total cpu time spent up to now is   242729.4 secs

     total energy              =   -3435.25614494 Ry
     estimated scf accuracy    <       0.00010103 Ry
     electrostatic embedding   =      -0.05482475 Ry
     cavitation energy         =       0.02127799 Ry
     PV energy                 =      -0.08108160 Ry
     correction to one-el term =     188.14526128 Ry

     iteration #  4     ecut=    50.00 Ry     beta= 0.70
     Davidson diagonalization with overlap
     ethr =  2.76E-08,  avg # of iterations =  2.0

     negative rho (up, down):  1.096E-04 0.000E+00

     add environment contribution to local potential
     Polarization accuracy = 5.7E-12, # of iterations =  46

     total cpu time spent up to now is   243675.1 secs

     total energy              =   -3435.25615209 Ry
     estimated scf accuracy    <       0.00001001 Ry
     electrostatic embedding   =      -0.05470447 Ry
     cavitation energy         =       0.02126923 Ry
     PV energy                 =      -0.08108731 Ry
     correction to one-el term =     188.15460781 Ry

     iteration #  5     ecut=    50.00 Ry     beta= 0.70
     Davidson diagonalization with overlap
     ethr =  2.74E-09,  avg # of iterations =  2.0

     negative rho (up, down):  1.079E-04 0.000E+00

     add environment contribution to local potential
     Polarization accuracy = 8.1E-12, # of iterations =  45
