
     Program PWSCF v.7.2 starts on 24Jul2023 at 16:30:29 
        Git branch: heads/qe-7.2
        Last git commit: b4c5e8deeb7d1863e7553a87b45f8d22c21926a5
        Last git commit date: Mon Mar 27 16:12:09 2023 +0000
        Last git commit subject: Merge branch 'merge_fix_hubbard' into 'develop'

     This program is part of the open-source Quantum ESPRESSO suite
     for quantum simulation of materials; please cite
         "P. Giannozzi et al., J. Phys.:Condens. Matter 21 395502 (2009);
         "P. Giannozzi et al., J. Phys.:Condens. Matter 29 465901 (2017);
         "P. Giannozzi et al., J. Chem. Phys. 152 154105 (2020);
          URL http://www.quantum-espresso.org", 
     in publications or presentations arising from this work. More details at
     http://www.quantum-espresso.org/quote

     Parallel version (MPI), running on    20 processors

     MPI processes distributed on     1 nodes
     103621 MiB available memory on the printing compute node when the environment starts
 
     Reading input from RuO2-110-0-02.in

     Current dimensions of program PWSCF are:
     Max number of different atomic species (ntypx) = 10
     Max number of k-points (npk) =  40000
     Max angular momentum in pseudopotentials (lmaxx) =  4
 
     Reading input from environ.in:
     * Environ restarting
     * setting up water environment
     * using electronic solvent mode
     * setting boundary derivatives method to SCCS default
     
     file O.pbe-n-kjpaw_psl.0.1.UPF: wavefunction(s)  2P renormalized
     Message from routine setup:
     using ibrav=0 with symmetry is DISCOURAGED, use correct ibrav instead
 
     R & G space division:  proc/nbgrp/npool/nimage =      20
     Subspace diagonalization in iterative solution of the eigenvalue problem:
     one sub-group per band group will be used
     scalapack distributed-memory algorithm (size of sub-group:  2*  2 procs)

 
     Parallelization info
     --------------------
     sticks:   dense  smooth     PW     G-vecs:    dense   smooth      PW
     Min         276     110     29                54982    13912    1877
     Max         277     111     30                54993    13923    1888
     Sum        5537    2217    585              1099789   278381   37601
 
     Using Slab Decomposition
 


     bravais-lattice index     =            0
     lattice parameter (alat)  =      12.3824  a.u.
     unit-cell volume          =    5825.9133 (a.u.)^3
     number of atoms/cell      =           44
     number of atomic types    =            3
     number of electrons       =       364.00
     number of Kohn-Sham states=          218
     kinetic-energy cutoff     =      50.0000  Ry
     charge density cutoff     =     500.0000  Ry
     scf convergence threshold =      1.0E-09
     mixing beta               =       0.7000
     number of iterations used =            8  local-TF  mixing
     energy convergence thresh.=      1.0E-04
     force convergence thresh. =      1.0E-04
     Exchange-correlation= PBE
                           (   1   4   3   4   0   0   0)
     nstep                     =          200


     ================================================================================
 
                                  Environ Setup Summary

     ================================================================================
 
     Please cite

          O. Andreussi, I. Dabo and N. Marzari, J. Chem. Phys. 136, 064102 (2012)

     in publications or presentations arising from this work.

     ================================================================================
 
     Parameters
     ==========

     compensation onset threshold      =               0.1000E+00
     static permittivity               =                    78.30
     surface tension in input (dyn/cm) =                    47.90
     surface tension in internal units =               0.6153E-04
     external pressure in input (GPa)  =                    -0.36
     external pressure in inter. units =              -0.2447E-04

     Solvent Boundary
     ================

     solvent mode                      =               electronic
     derivatives method                =                    chain
     numerical core for derivatives    =                      fft
     switching function adopted        =                     SCCS
     density limit for vacuum region   =               0.5000E-02
     density limit for bulk solvent    =               0.1000E-03

     Electrostatic Setup
     ===================

     electrostatic problem to solve    =              generalized
     numerical solver adopted          =                       cg
     type of auxiliary density adopted =                     none
     numerical core for poisson        =                      fft
     type of pbc corrections           =                parabolic
     numerical core for corrections    =                      1da

     ================================================================================
 

     celldm(1)=  12.382447  celldm(2)=   0.000000  celldm(3)=   0.000000
     celldm(4)=   0.000000  celldm(5)=   0.000000  celldm(6)=   0.000000

     crystal axes: (cart. coord. in units of alat)
               a(1) = (   1.000000   0.000000   0.000000 )  
               a(2) = (   0.000000   0.908473   0.000000 )  
               a(3) = (   0.000000   0.000000   3.377790 )  

     reciprocal axes: (cart. coord. in units 2 pi/alat)
               b(1) = (  1.000000  0.000000  0.000000 )  
               b(2) = (  0.000000  1.100748  0.000000 )  
               b(3) = (  0.000000  0.000000  0.296052 )  


     PseudoPot. # 1 for O  read from file:
     /gpfs/group/ixd4/default/Simon/pseudopotentials/materialscloud/SSSP_1.3.0_PBE_efficiency/O.pbe-n-kjpaw_psl.0.1.UPF
     MD5 check sum: 0234752ac141de4415c5fc33072bef88
     Pseudo is Projector augmented-wave + core cor, Zval =  6.0
     Generated using "atomic" code by A. Dal Corso  v.5.0.99 svn rev. 10869
     Shape of augmentation charge: BESSEL
     Using radial grid of 1095 points,  4 beta functions with: 
                l(1) =   0
                l(2) =   0
                l(3) =   1
                l(4) =   1
     Q(r) pseudized with 0 coefficients 


     PseudoPot. # 2 for Ru read from file:
     /gpfs/group/ixd4/default/Simon/pseudopotentials/materialscloud/SSSP_1.3.0_PBE_efficiency/Ru_ONCV_PBE-1.0.oncvpsp.upf
     MD5 check sum: be037bb81c227cfb9b1461a9f099f4bd
     Pseudo is Norm-conserving, Zval = 16.0
     Generated using ONCVPSP code by D. R. Hamann
     Using radial grid of 1458 points,  6 beta functions with: 
                l(1) =   0
                l(2) =   0
                l(3) =   1
                l(4) =   1
                l(5) =   2
                l(6) =   2

     PseudoPot. # 3 for H  read from file:
     /gpfs/group/ixd4/default/Simon/pseudopotentials/materialscloud/SSSP_1.3.0_PBE_efficiency/H.pbe-rrkjus_psl.1.0.0.UPF
     MD5 check sum: f52b6d4d1c606e5624b1dc7b2218f220
     Pseudo is Ultrasoft, Zval =  1.0
     Generated using "atomic" code by A. Dal Corso  v.5.1
     Using radial grid of  929 points,  2 beta functions with: 
                l(1) =   0
                l(2) =   0
     Q(r) pseudized with 0 coefficients 


     atomic species   valence    mass     pseudopotential
        O              6.00    15.99940     O ( 1.00)
        Ru            16.00   101.07000     Ru( 1.00)
        H              1.00     1.00794     H ( 1.00)

      2 Sym. Ops. (no inversion) found



   Cartesian axes

     site n.     atom                  positions (alat units)
         1           O   tau(   1) = (  -0.0009152   0.4408611   0.9169015  )
         2           O   tau(   2) = (   0.4953306   0.4548195   0.9211478  )
         3           O   tau(   3) = (   0.0010453  -0.0018872   1.0082051  )
         4           O   tau(   4) = (   0.4996926  -0.0040121   1.0454472  )
         5           Ru  tau(   5) = (   0.2539575  -0.0016493   1.2051042  )
         6           Ru  tau(   6) = (   0.7467205  -0.0006606   1.2037696  )
         7           O   tau(   7) = (   0.2481609   0.2766944   1.2127945  )
         8           O   tau(   8) = (   0.7517538   0.2764358   1.2050554  )
         9           Ru  tau(   9) = (  -0.0021681   0.4531652   1.2096651  )
        10           Ru  tau(  10) = (   0.4986917   0.4516305   1.1819533  )
        11           O   tau(  11) = (   0.2444493   0.6289848   1.2062244  )
        12           O   tau(  12) = (   0.7536006   0.6275436   1.2088924  )
        13           O   tau(  13) = (  -0.0008582  -0.0014266   1.3935158  )
        14           O   tau(  14) = (   0.5011844  -0.0033180   1.3929129  )
        15           O   tau(  15) = (   0.0035094   0.4526581   1.5079015  )
        16           O   tau(  16) = (   0.5023031   0.4532116   1.4899251  )
        17           Ru  tau(  17) = (  -0.0007766  -0.0015861   1.6888985  )
        18           Ru  tau(  18) = (   0.5026935  -0.0010076   1.6888985  )
        19           O   tau(  19) = (   0.2524756   0.1732520   1.6888985  )
        20           O   tau(  20) = (   0.7492021   0.1764351   1.6888985  )
        21           Ru  tau(  21) = (   0.2583259   0.4528687   1.6888985  )
        22           Ru  tau(  22) = (   0.7450040   0.4535549   1.6888985  )
        23           O   tau(  23) = (   0.2520666   0.7330069   1.6888985  )
        24           O   tau(  24) = (   0.7499090   0.7292568   1.6888985  )
        25           O   tau(  25) = (   0.0035094   0.4526581   1.8698922  )
        26           O   tau(  26) = (   0.5023031   0.4532116   1.8878686  )
        27           O   tau(  27) = (  -0.0008582  -0.0014266   1.9842779  )
        28           O   tau(  28) = (   0.5011844  -0.0033180   1.9848808  )
        29           Ru  tau(  29) = (   0.2539575  -0.0016493   2.1726895  )
        30           Ru  tau(  30) = (   0.7467205  -0.0006606   2.1740241  )
        31           O   tau(  31) = (   0.2481609   0.2766944   2.1649992  )
        32           O   tau(  32) = (   0.7517538   0.2764358   2.1727383  )
        33           Ru  tau(  33) = (  -0.0021681   0.4531652   2.1681286  )
        34           Ru  tau(  34) = (   0.4986917   0.4516305   2.1958404  )
        35           O   tau(  35) = (   0.2444493   0.6289848   2.1715693  )
        36           O   tau(  36) = (   0.7536006   0.6275436   2.1689013  )
        37           O   tau(  37) = (   0.0010453  -0.0018872   2.3695920  )
        38           O   tau(  38) = (   0.4996926  -0.0040121   2.3323498  )
        39           O   tau(  39) = (  -0.0009152   0.4408611   2.4608922  )
        40           O   tau(  40) = (   0.4953306   0.4548195   2.4566459  )
        41           H   tau(  41) = (   0.1147090   0.5096633   0.8544423  )
        42           H   tau(  42) = (   0.1147090   0.5096633   2.5233480  )
        43           H   tau(  43) = (   0.0020178   0.0924685   0.9008677  )
        44           H   tau(  44) = (   0.0020178   0.0924685   2.4769226  )

     number of k points=     2  Marzari-Vanderbilt smearing, width (Ry)=  0.0300
                       cart. coord. in units 2pi/alat
        k(    1) = (   0.2500000   0.2751871   0.0000000), wk =   1.0000000
        k(    2) = (  -0.2500000   0.2751871   0.0000000), wk =   1.0000000

     Dense  grid:  1099789 G-vectors     FFT dimensions: (  90,  81, 300)

     Smooth grid:   278381 G-vectors     FFT dimensions: (  60,  54, 192)

     Estimated max dynamical RAM per process >     180.08 MB

     Estimated total dynamical RAM >       3.52 GB

     Check: negative core charge=   -0.000001

     Initial potential from superposition of free atoms

     starting charge     363.9933, renormalised to     364.0000

     add environment contribution to local potential
     Polarization accuracy = 7.0E-12, # of iterations =  24

     negative rho (up, down):  3.377E-05 0.000E+00
     Starting wfcs are  236 randomized atomic wfcs
     Checking if some PAW data can be deallocated... 

     total cpu time spent up to now is      969.2 secs

     per-process dynamical memory:   149.8 Mb

     Self-consistent Calculation

     iteration #  1     ecut=    50.00 Ry     beta= 0.70
     Davidson diagonalization with overlap
     ethr =  1.00E-02,  avg # of iterations =  2.0

     total cpu time spent up to now is     1248.0 secs

     total energy              =   -3430.01921521 Ry
     estimated scf accuracy    <      10.16849249 Ry
     electrostatic embedding   =      -0.00171855 Ry
     cavitation energy         =       0.01950865 Ry
     PV energy                 =      -0.08299464 Ry
     correction to one-el term =     217.91033377 Ry

     iteration #  2     ecut=    50.00 Ry     beta= 0.70
     Davidson diagonalization with overlap
     ethr =  2.79E-03,  avg # of iterations =  2.0

     total cpu time spent up to now is     1517.2 secs

     total energy              =   -3432.26026928 Ry
     estimated scf accuracy    <       2.27272572 Ry
     electrostatic embedding   =      -0.00243967 Ry
     cavitation energy         =       0.01959349 Ry
     PV energy                 =      -0.08312428 Ry
     correction to one-el term =     217.91226811 Ry

     iteration #  3     ecut=    50.00 Ry     beta= 0.70
     Davidson diagonalization with overlap
     ethr =  6.24E-04,  avg # of iterations =  1.0

     total cpu time spent up to now is     1788.7 secs

     total energy              =   -3432.49262710 Ry
     estimated scf accuracy    <       0.47416011 Ry
     electrostatic embedding   =      -0.00274826 Ry
     cavitation energy         =       0.01964384 Ry
     PV energy                 =      -0.08317305 Ry
     correction to one-el term =     217.91307509 Ry

     iteration #  4     ecut=    50.00 Ry     beta= 0.70
     Davidson diagonalization with overlap
     ethr =  1.30E-04,  avg # of iterations =  2.0

     total cpu time spent up to now is     2110.4 secs

     total energy              =   -3432.53368011 Ry
     estimated scf accuracy    <       0.27798806 Ry
     electrostatic embedding   =      -0.00280311 Ry
     cavitation energy         =       0.01979465 Ry
     PV energy                 =      -0.08269671 Ry
     correction to one-el term =     217.91294710 Ry

     iteration #  5     ecut=    50.00 Ry     beta= 0.70
     Davidson diagonalization with overlap
     ethr =  7.64E-05,  avg # of iterations =  1.0

     add environment contribution to local potential
     Polarization accuracy = 4.3E-12, # of iterations =  35

     total cpu time spent up to now is     2423.2 secs

     total energy              =   -3432.53524879 Ry
     estimated scf accuracy    <       0.07755653 Ry
     electrostatic embedding   =      -0.00288917 Ry
     cavitation energy         =       0.02004189 Ry
     PV energy                 =      -0.08209584 Ry
     correction to one-el term =     217.91287595 Ry

     iteration #  6     ecut=    50.00 Ry     beta= 0.70
     Davidson diagonalization with overlap
     ethr =  2.13E-05,  avg # of iterations =  2.0

     add environment contribution to local potential
     Polarization accuracy = 2.0E-12, # of iterations =  38

     total cpu time spent up to now is     2675.1 secs

     total energy              =   -3432.55792448 Ry
     estimated scf accuracy    <       0.05060422 Ry
     electrostatic embedding   =      -0.02660484 Ry
     cavitation energy         =       0.02038925 Ry
     PV energy                 =      -0.08126387 Ry
     correction to one-el term =     195.47245552 Ry

     iteration #  7     ecut=    50.00 Ry     beta= 0.70
     Davidson diagonalization with overlap
     ethr =  1.39E-05,  avg # of iterations =  7.0

     add environment contribution to local potential
     Polarization accuracy = 7.7E-12, # of iterations =  39

     total cpu time spent up to now is     2929.4 secs

     total energy              =   -3432.55987943 Ry
     estimated scf accuracy    <       0.02867240 Ry
     electrostatic embedding   =      -0.03067976 Ry
     cavitation energy         =       0.02059971 Ry
     PV energy                 =      -0.08081184 Ry
     correction to one-el term =     193.62703790 Ry

     iteration #  8     ecut=    50.00 Ry     beta= 0.70
     Davidson diagonalization with overlap
     ethr =  7.88E-06,  avg # of iterations = 11.5

     add environment contribution to local potential
     Polarization accuracy = 4.2E-12, # of iterations =  48

     total cpu time spent up to now is     3210.6 secs

     total energy              =   -3432.55622764 Ry
     estimated scf accuracy    <       0.02168570 Ry
     electrostatic embedding   =      -0.03411468 Ry
     cavitation energy         =       0.02075553 Ry
     PV energy                 =      -0.08046771 Ry
     correction to one-el term =     192.36027773 Ry

     iteration #  9     ecut=    50.00 Ry     beta= 0.70
     Davidson diagonalization with overlap
     ethr =  5.96E-06,  avg # of iterations =  2.0

     negative rho (up, down):  1.211E-08 0.000E+00

     add environment contribution to local potential
     Polarization accuracy = 3.5E-12, # of iterations =  50

     total cpu time spent up to now is     3464.7 secs

     total energy              =   -3432.55929220 Ry
     estimated scf accuracy    <       0.04765967 Ry
     electrostatic embedding   =      -0.04978953 Ry
     cavitation energy         =       0.02131543 Ry
     PV energy                 =      -0.07940328 Ry
     correction to one-el term =     188.71420064 Ry

     iteration # 10     ecut=    50.00 Ry     beta= 0.70
     Davidson diagonalization with overlap
     ethr =  5.96E-06,  avg # of iterations =  1.0

     add environment contribution to local potential
     Polarization accuracy = 2.1E-12, # of iterations =  49

     total cpu time spent up to now is     3696.4 secs

     total energy              =   -3432.55841106 Ry
     estimated scf accuracy    <       0.02737392 Ry
     electrostatic embedding   =      -0.05589193 Ry
     cavitation energy         =       0.02140001 Ry
     PV energy                 =      -0.07917601 Ry
     correction to one-el term =     188.04157192 Ry

     iteration # 11     ecut=    50.00 Ry     beta= 0.70
     Davidson diagonalization with overlap
     ethr =  5.96E-06,  avg # of iterations =  1.0

     negative rho (up, down):  2.246E-08 0.000E+00

     add environment contribution to local potential
     Polarization accuracy = 4.9E-12, # of iterations =  48

     total cpu time spent up to now is     3983.4 secs

     total energy              =   -3432.55899013 Ry
     estimated scf accuracy    <       0.01240876 Ry
     electrostatic embedding   =      -0.05407027 Ry
     cavitation energy         =       0.02123848 Ry
     PV energy                 =      -0.07930972 Ry
     correction to one-el term =     188.95387787 Ry

     iteration # 12     ecut=    50.00 Ry     beta= 0.70
     Davidson diagonalization with overlap
     ethr =  3.41E-06,  avg # of iterations =  1.0

     negative rho (up, down):  5.303E-05 0.000E+00

     add environment contribution to local potential
     Polarization accuracy = 5.1E-12, # of iterations =  47

     total cpu time spent up to now is     4247.6 secs

     total energy              =   -3432.55932925 Ry
     estimated scf accuracy    <       0.00677437 Ry
     electrostatic embedding   =      -0.05321830 Ry
     cavitation energy         =       0.02110617 Ry
     PV energy                 =      -0.07939169 Ry
     correction to one-el term =     189.90182563 Ry

     iteration # 13     ecut=    50.00 Ry     beta= 0.70
     Davidson diagonalization with overlap
     ethr =  1.86E-06,  avg # of iterations =  1.5

     negative rho (up, down):  2.968E-05 0.000E+00

     add environment contribution to local potential
     Polarization accuracy = 3.2E-12, # of iterations =  47

     total cpu time spent up to now is     4444.8 secs

     total energy              =   -3432.56007134 Ry
     estimated scf accuracy    <       0.00317366 Ry
     electrostatic embedding   =      -0.05097208 Ry
     cavitation energy         =       0.02094354 Ry
     PV energy                 =      -0.07952028 Ry
     correction to one-el term =     191.32319636 Ry

     iteration # 14     ecut=    50.00 Ry     beta= 0.70
     Davidson diagonalization with overlap
     ethr =  8.72E-07,  avg # of iterations =  1.0

     negative rho (up, down):  2.621E-05 0.000E+00

     add environment contribution to local potential
     Polarization accuracy = 9.1E-12, # of iterations =  44

     total cpu time spent up to now is     4751.2 secs

     total energy              =   -3432.56039392 Ry
     estimated scf accuracy    <       0.00120473 Ry
     electrostatic embedding   =      -0.04932728 Ry
     cavitation energy         =       0.02089625 Ry
     PV energy                 =      -0.07956467 Ry
     correction to one-el term =     191.98771153 Ry

     iteration # 15     ecut=    50.00 Ry     beta= 0.70
     Davidson diagonalization with overlap
     ethr =  3.31E-07,  avg # of iterations =  2.0

     negative rho (up, down):  2.568E-04 0.000E+00

     add environment contribution to local potential
     Polarization accuracy = 3.7E-12, # of iterations =  45

     total cpu time spent up to now is     5021.5 secs

     total energy              =   -3432.56090457 Ry
     estimated scf accuracy    <       0.00021166 Ry
     electrostatic embedding   =      -0.04480652 Ry
     cavitation energy         =       0.02078731 Ry
     PV energy                 =      -0.07970411 Ry
     correction to one-el term =     193.39408629 Ry

     iteration # 16     ecut=    50.00 Ry     beta= 0.70
     Davidson diagonalization with overlap
     ethr =  5.81E-08,  avg # of iterations =  2.0

     negative rho (up, down):  8.846E-06 0.000E+00

     add environment contribution to local potential
     Polarization accuracy = 4.7E-12, # of iterations =  46

     total cpu time spent up to now is     5294.1 secs

     total energy              =   -3432.56097722 Ry
     estimated scf accuracy    <       0.00012857 Ry
     electrostatic embedding   =      -0.04307529 Ry
     cavitation energy         =       0.02081959 Ry
     PV energy                 =      -0.07967580 Ry
     correction to one-el term =     193.76176244 Ry

     iteration # 17     ecut=    50.00 Ry     beta= 0.70
     Davidson diagonalization with overlap
     ethr =  3.53E-08,  avg # of iterations =  1.0

     negative rho (up, down):  2.201E-06 0.000E+00

     add environment contribution to local potential
     Polarization accuracy = 5.4E-12, # of iterations =  45

     total cpu time spent up to now is     5582.1 secs

     total energy              =   -3432.56098270 Ry
     estimated scf accuracy    <       0.00003106 Ry
     electrostatic embedding   =      -0.04300955 Ry
     cavitation energy         =       0.02083851 Ry
     PV energy                 =      -0.07965619 Ry
     correction to one-el term =     193.71207130 Ry

     iteration # 18     ecut=    50.00 Ry     beta= 0.70
     Davidson diagonalization with overlap
     ethr =  8.53E-09,  avg # of iterations =  2.0

     negative rho (up, down):  2.244E-04 0.000E+00

     add environment contribution to local potential
     Polarization accuracy = 8.3E-12, # of iterations =  45

     total cpu time spent up to now is     5893.2 secs

     total energy              =   -3432.56099772 Ry
     estimated scf accuracy    <       0.00002398 Ry
     electrostatic embedding   =      -0.04270563 Ry
     cavitation energy         =       0.02084578 Ry
     PV energy                 =      -0.07965137 Ry
     correction to one-el term =     193.74069696 Ry

     iteration # 19     ecut=    50.00 Ry     beta= 0.70
     Davidson diagonalization with overlap
     ethr =  6.59E-09,  avg # of iterations =  2.0

     negative rho (up, down):  8.262E-05 0.000E+00

     add environment contribution to local potential
     Polarization accuracy = 8.8E-12, # of iterations =  46

     total cpu time spent up to now is     6119.1 secs

     total energy              =   -3432.56100457 Ry
     estimated scf accuracy    <       0.00000179 Ry
     electrostatic embedding   =      -0.04237613 Ry
     cavitation energy         =       0.02085502 Ry
     PV energy                 =      -0.07963049 Ry
     correction to one-el term =     193.85962262 Ry

     iteration # 20     ecut=    50.00 Ry     beta= 0.70
     Davidson diagonalization with overlap
     ethr =  4.93E-10,  avg # of iterations =  2.0

     negative rho (up, down):  1.280E-04 0.000E+00

     add environment contribution to local potential
     Polarization accuracy = 9.6E-12, # of iterations =  45

     total cpu time spent up to now is     6374.2 secs

     total energy              =   -3432.56100506 Ry
     estimated scf accuracy    <       0.00000075 Ry
     electrostatic embedding   =      -0.04245018 Ry
     cavitation energy         =       0.02085666 Ry
     PV energy                 =      -0.07962521 Ry
     correction to one-el term =     193.83735454 Ry

     iteration # 21     ecut=    50.00 Ry     beta= 0.70
     Davidson diagonalization with overlap
     ethr =  2.05E-10,  avg # of iterations =  2.0

     negative rho (up, down):  1.393E-04 0.000E+00

     add environment contribution to local potential
     Polarization accuracy = 9.6E-12, # of iterations =  45

     total cpu time spent up to now is     6656.3 secs

     total energy              =   -3432.56100555 Ry
     estimated scf accuracy    <       0.00000022 Ry
     electrostatic embedding   =      -0.04241873 Ry
     cavitation energy         =       0.02085657 Ry
     PV energy                 =      -0.07962387 Ry
     correction to one-el term =     193.84843318 Ry

     iteration # 22     ecut=    50.00 Ry     beta= 0.70
     Davidson diagonalization with overlap
     ethr =  6.13E-11,  avg # of iterations =  2.0

     negative rho (up, down):  1.638E-04 0.000E+00

     add environment contribution to local potential
     Polarization accuracy = 9.6E-12, # of iterations =  45

     total cpu time spent up to now is     6910.0 secs

     total energy              =   -3432.56100576 Ry
     estimated scf accuracy    <       0.00000017 Ry
     electrostatic embedding   =      -0.04240751 Ry
     cavitation energy         =       0.02085590 Ry
     PV energy                 =      -0.07962416 Ry
     correction to one-el term =     193.85100105 Ry

     iteration # 23     ecut=    50.00 Ry     beta= 0.70
     Davidson diagonalization with overlap
     ethr =  4.60E-11,  avg # of iterations =  2.0

     negative rho (up, down):  1.637E-04 0.000E+00

     add environment contribution to local potential
     Polarization accuracy = 9.5E-12, # of iterations =  45

     total cpu time spent up to now is     7150.8 secs

     total energy              =   -3432.56100613 Ry
     estimated scf accuracy    <       0.00000012 Ry
     electrostatic embedding   =      -0.04239330 Ry
     cavitation energy         =       0.02085520 Ry
     PV energy                 =      -0.07962425 Ry
     correction to one-el term =     193.85541635 Ry

     iteration # 24     ecut=    50.00 Ry     beta= 0.70
     Davidson diagonalization with overlap
     ethr =  3.18E-11,  avg # of iterations =  2.0

     negative rho (up, down):  1.606E-04 0.000E+00

     add environment contribution to local potential
     Polarization accuracy = 9.7E-12, # of iterations =  45

     total cpu time spent up to now is     7456.8 secs

     total energy              =   -3432.56100663 Ry
     estimated scf accuracy    <       0.00000010 Ry
     electrostatic embedding   =      -0.04237970 Ry
     cavitation energy         =       0.02085469 Ry
     PV energy                 =      -0.07962473 Ry
     correction to one-el term =     193.85645001 Ry

     iteration # 25     ecut=    50.00 Ry     beta= 0.70
     Davidson diagonalization with overlap
     ethr =  2.73E-11,  avg # of iterations =  1.0

     negative rho (up, down):  1.502E-04 0.000E+00

     add environment contribution to local potential
     Polarization accuracy = 9.2E-12, # of iterations =  45

     total cpu time spent up to now is     7725.4 secs

     total energy              =   -3432.56100701 Ry
     estimated scf accuracy    <       0.00000009 Ry
     electrostatic embedding   =      -0.04237076 Ry
     cavitation energy         =       0.02085462 Ry
     PV energy                 =      -0.07962501 Ry
     correction to one-el term =     193.85731389 Ry

     iteration # 26     ecut=    50.00 Ry     beta= 0.70
     Davidson diagonalization with overlap
     ethr =  2.46E-11,  avg # of iterations =  1.0

     negative rho (up, down):  1.504E-04 0.000E+00

     add environment contribution to local potential
     Polarization accuracy = 8.8E-12, # of iterations =  46

     total cpu time spent up to now is     8008.0 secs

     total energy              =   -3432.56100726 Ry
     estimated scf accuracy    <       0.00000008 Ry
     electrostatic embedding   =      -0.04236965 Ry
     cavitation energy         =       0.02085462 Ry
     PV energy                 =      -0.07962555 Ry
     correction to one-el term =     193.85637320 Ry

     iteration # 27     ecut=    50.00 Ry     beta= 0.70
     Davidson diagonalization with overlap
     ethr =  2.11E-11,  avg # of iterations =  1.0

     negative rho (up, down):  1.499E-04 0.000E+00

     add environment contribution to local potential
     Polarization accuracy = 9.7E-12, # of iterations =  46

     total cpu time spent up to now is     8320.8 secs

     total energy              =   -3432.56100773 Ry
     estimated scf accuracy    <       0.00000007 Ry
     electrostatic embedding   =      -0.04236433 Ry
     cavitation energy         =       0.02085455 Ry
     PV energy                 =      -0.07962563 Ry
     correction to one-el term =     193.85712854 Ry

     iteration # 28     ecut=    50.00 Ry     beta= 0.70
     Davidson diagonalization with overlap
     ethr =  1.94E-11,  avg # of iterations =  1.0

     negative rho (up, down):  1.444E-04 0.000E+00

     add environment contribution to local potential
     Polarization accuracy = 9.5E-12, # of iterations =  45

     total cpu time spent up to now is     8554.6 secs

     total energy              =   -3432.56100828 Ry
     estimated scf accuracy    <       0.00000007 Ry
     electrostatic embedding   =      -0.04236069 Ry
     cavitation energy         =       0.02085456 Ry
     PV energy                 =      -0.07962569 Ry
     correction to one-el term =     193.85769070 Ry

     iteration # 29     ecut=    50.00 Ry     beta= 0.70
     Davidson diagonalization with overlap
     ethr =  1.93E-11,  avg # of iterations =  2.0

     negative rho (up, down):  1.505E-04 0.000E+00

     add environment contribution to local potential
     Polarization accuracy = 9.0E-12, # of iterations =  45

     total cpu time spent up to now is     8816.8 secs

     total energy              =   -3432.56101020 Ry
     estimated scf accuracy    <       0.00000007 Ry
     electrostatic embedding   =      -0.04235695 Ry
     cavitation energy         =       0.02085478 Ry
     PV energy                 =      -0.07962594 Ry
     correction to one-el term =     193.85827055 Ry

     iteration # 30     ecut=    50.00 Ry     beta= 0.70
     Davidson diagonalization with overlap
     ethr =  1.91E-11,  avg # of iterations =  2.0

     negative rho (up, down):  1.538E-04 0.000E+00

     add environment contribution to local potential
     Polarization accuracy = 8.9E-12, # of iterations =  45

     total cpu time spent up to now is     9118.1 secs

     total energy              =   -3432.56101202 Ry
     estimated scf accuracy    <       0.00000006 Ry
     electrostatic embedding   =      -0.04236118 Ry
     cavitation energy         =       0.02085489 Ry
     PV energy                 =      -0.07962570 Ry
     correction to one-el term =     193.85884871 Ry

     iteration # 31     ecut=    50.00 Ry     beta= 0.70
     Davidson diagonalization with overlap
     ethr =  1.68E-11,  avg # of iterations =  2.0

     negative rho (up, down):  1.581E-04 0.000E+00

     add environment contribution to local potential
     Polarization accuracy = 8.2E-12, # of iterations =  45

     total cpu time spent up to now is     9333.2 secs

     total energy              =   -3432.56101482 Ry
     estimated scf accuracy    <       0.00000005 Ry
     electrostatic embedding   =      -0.04236049 Ry
     cavitation energy         =       0.02085494 Ry
     PV energy                 =      -0.07962563 Ry
     correction to one-el term =     193.85948383 Ry

     iteration # 32     ecut=    50.00 Ry     beta= 0.70
     Davidson diagonalization with overlap
     ethr =  1.46E-11,  avg # of iterations =  3.0

     negative rho (up, down):  1.622E-04 0.000E+00

     add environment contribution to local potential
     Polarization accuracy = 6.1E-12, # of iterations =  45

     total cpu time spent up to now is     9578.6 secs

     total energy              =   -3432.56102087 Ry
     estimated scf accuracy    <       0.00000004 Ry
     electrostatic embedding   =      -0.04235977 Ry
     cavitation energy         =       0.02085500 Ry
     PV energy                 =      -0.07962554 Ry
     correction to one-el term =     193.86045146 Ry

     iteration # 33     ecut=    50.00 Ry     beta= 0.70
     Davidson diagonalization with overlap
     ethr =  1.08E-11,  avg # of iterations =  5.0

     negative rho (up, down):  1.670E-04 0.000E+00

     add environment contribution to local potential
     Polarization accuracy = 4.4E-12, # of iterations =  46

     total cpu time spent up to now is     9890.1 secs

     total energy              =   -3432.56102889 Ry
     estimated scf accuracy    <       0.00000002 Ry
     electrostatic embedding   =      -0.04235765 Ry
     cavitation energy         =       0.02085496 Ry
     PV energy                 =      -0.07962556 Ry
     correction to one-el term =     193.86132241 Ry

     iteration # 34     ecut=    50.00 Ry     beta= 0.70
     Davidson diagonalization with overlap
     ethr =  5.07E-12,  avg # of iterations =  2.5

     negative rho (up, down):  1.666E-04 0.000E+00

     add environment contribution to local potential
     Polarization accuracy = 9.6E-12, # of iterations =  44

     total cpu time spent up to now is    10148.7 secs

     total energy              =   -3432.56103388 Ry
     estimated scf accuracy    <          5.0E-09 Ry
     electrostatic embedding   =      -0.04236191 Ry
     cavitation energy         =       0.02085474 Ry
     PV energy                 =      -0.07962541 Ry
     correction to one-el term =     193.86050943 Ry

     iteration # 35     ecut=    50.00 Ry     beta= 0.70
     Davidson diagonalization with overlap
     ethr =  1.36E-12,  avg # of iterations =  5.0

     negative rho (up, down):  1.622E-04 0.000E+00

     add environment contribution to local potential
     Polarization accuracy = 4.4E-12, # of iterations =  45

     total cpu time spent up to now is    10370.1 secs

     total energy              =   -3432.56103578 Ry
     estimated scf accuracy    <          2.6E-09 Ry
     electrostatic embedding   =      -0.04236454 Ry
     cavitation energy         =       0.02085458 Ry
     PV energy                 =      -0.07962534 Ry
     correction to one-el term =     193.85944139 Ry

     iteration # 36     ecut=    50.00 Ry     beta= 0.70
     Davidson diagonalization with overlap
     ethr =  7.25E-13,  avg # of iterations =  2.0

     negative rho (up, down):  1.594E-04 0.000E+00

     add environment contribution to local potential
     Polarization accuracy = 4.1E-12, # of iterations =  46

     total cpu time spent up to now is    10680.2 secs

     total energy              =   -3432.56103632 Ry
     estimated scf accuracy    <          1.1E-09 Ry
     electrostatic embedding   =      -0.04236374 Ry
     cavitation energy         =       0.02085459 Ry
     PV energy                 =      -0.07962543 Ry
     correction to one-el term =     193.85897767 Ry

     iteration # 37     ecut=    50.00 Ry     beta= 0.70
     Davidson diagonalization with overlap
     ethr =  3.10E-13,  avg # of iterations =  1.0

     negative rho (up, down):  1.523E-04 0.000E+00

     the potential shift due to the Gaussian-smeared nuclei is    -1.3353 ev

     total cpu time spent up to now is    10927.2 secs

     End of self-consistent calculation

          k = 0.2500 0.2752 0.0000 ( 34780 PWs)   bands (ev):

   -78.5828 -78.5694 -78.2003 -78.1875 -78.1695 -78.1566 -77.9111 -77.8981
   -77.7794 -77.7679 -77.6647 -77.6608 -49.1402 -49.1268 -48.5587 -48.5458
   -48.5167 -48.5037 -48.4628 -48.4495 -48.2482 -48.1850 -48.1826 -48.1694
   -48.1545 -48.1478 -48.1416 -48.1348 -48.0808 -48.0681 -48.0201 -48.0070
   -47.9848 -47.9720 -47.9469 -47.9339 -47.9084 -47.9064 -47.6811 -47.6582
   -47.6411 -47.6281 -47.6023 -47.5997 -47.5797 -47.5745 -47.4995 -47.4451
   -24.4399 -24.3486 -24.1540 -23.9785 -23.9600 -23.9205 -23.8844 -23.7836
   -23.4361 -23.3034 -23.2400 -23.1844 -23.1765 -23.1340 -23.1071 -23.0535
   -23.0208 -23.0030 -22.9476 -22.8593 -22.8227 -22.8148 -22.6846 -22.4817
   -22.3369 -22.2368 -22.2170 -22.0942 -12.6213 -12.6042 -12.4461 -12.3055
   -12.1673 -12.0715 -11.9914 -11.8993 -11.7632 -11.6394 -11.6164 -11.5181
   -11.5096 -11.4932 -11.3906 -11.3170 -11.2505 -11.1967 -11.1947 -11.0832
   -11.0320 -10.9833 -10.8720 -10.7573 -10.6083 -10.5603 -10.3636 -10.2743
   -10.2425 -10.1815 -10.1107  -9.9666  -9.8351  -9.7993  -9.7902  -9.6693
    -9.6420  -9.5834  -9.4872  -9.3805  -9.3762  -9.2578  -9.2002  -9.1100
    -9.1052  -8.9665  -8.7737  -8.7637  -8.6420  -8.6152  -8.5881  -8.5664
    -8.5367  -8.4809  -8.4519  -8.3407  -8.3144  -8.2082  -8.1922  -8.0812
    -8.0548  -7.9416  -7.9391  -7.8340  -7.7447  -7.6644  -7.5410  -7.4879
    -7.3721  -7.3207  -7.2762  -7.2098  -7.2032  -7.0827  -6.9840  -6.9616
    -6.8519  -6.8242  -6.6739  -6.6511  -6.6132  -6.5428  -6.4274  -6.4229
    -5.4965  -5.4546  -5.3994  -5.3547  -5.2566  -5.2414  -5.1695  -5.1591
    -5.0941  -5.0499  -5.0252  -5.0002  -4.9087  -4.8856  -4.8437  -4.7069
    -4.6885  -4.6139  -4.5597  -4.5586  -4.4551  -4.3056  -4.2573  -4.1884
    -4.0897  -4.0652  -3.8899  -3.8719  -3.5901  -3.5575  -3.5292  -3.4537
    -3.3565  -3.3447  -3.1154  -3.0075  -2.6551  -2.3907  -2.3765  -2.2636
    -2.1140  -1.9735  -1.3480  -1.1427  -1.0104  -0.8257  -0.6934  -0.6570
    -0.5376  -0.4236  -0.3329  -0.2683   0.0455   0.1243   0.2226   0.5472
     0.6574   0.7430

          k =-0.2500 0.2752 0.0000 ( 34780 PWs)   bands (ev):

   -78.5828 -78.5694 -78.2003 -78.1875 -78.1695 -78.1566 -77.9111 -77.8981
   -77.7794 -77.7679 -77.6647 -77.6608 -49.1402 -49.1268 -48.5587 -48.5459
   -48.5167 -48.5038 -48.4627 -48.4494 -48.2482 -48.1850 -48.1828 -48.1695
   -48.1544 -48.1478 -48.1415 -48.1348 -48.0807 -48.0679 -48.0201 -48.0070
   -47.9847 -47.9719 -47.9471 -47.9342 -47.9084 -47.9064 -47.6811 -47.6582
   -47.6411 -47.6281 -47.6023 -47.5998 -47.5795 -47.5745 -47.4996 -47.4451
   -24.4403 -24.3487 -24.1535 -23.9880 -23.9692 -23.9099 -23.8724 -23.7823
   -23.4394 -23.2980 -23.2478 -23.1989 -23.1804 -23.1296 -23.1103 -23.0454
   -23.0154 -22.9864 -22.9518 -22.8591 -22.8288 -22.8181 -22.6843 -22.4813
   -22.3369 -22.2362 -22.2169 -22.0948 -12.6179 -12.6008 -12.4472 -12.3056
   -12.1626 -12.0728 -12.0019 -11.8938 -11.7670 -11.6415 -11.6153 -11.5207
   -11.5111 -11.4939 -11.4110 -11.3217 -11.2685 -11.1938 -11.1718 -11.0933
   -10.9947 -10.9464 -10.9003 -10.7963 -10.5908 -10.5846 -10.3525 -10.2673
   -10.2093 -10.1826 -10.0887  -9.9573  -9.8325  -9.8211  -9.7839  -9.6855
    -9.6470  -9.5700  -9.5136  -9.4242  -9.3709  -9.2856  -9.2286  -9.0910
    -9.0255  -8.9372  -8.7927  -8.7725  -8.6443  -8.6219  -8.5822  -8.5376
    -8.5184  -8.4579  -8.4526  -8.3414  -8.3378  -8.2450  -8.1743  -8.0787
    -8.0514  -8.0213  -7.9688  -7.7659  -7.7627  -7.6381  -7.5600  -7.4522
    -7.3954  -7.3274  -7.2803  -7.2262  -7.1978  -7.0994  -6.9982  -6.8883
    -6.8218  -6.8198  -6.6922  -6.6549  -6.6215  -6.5720  -6.4485  -6.3855
    -5.4975  -5.4631  -5.4018  -5.3584  -5.2832  -5.2338  -5.2198  -5.1001
    -5.0645  -5.0528  -5.0237  -4.9643  -4.9119  -4.8586  -4.8483  -4.7032
    -4.6809  -4.6766  -4.5744  -4.5297  -4.4761  -4.3142  -4.2984  -4.2206
    -4.0689  -4.0173  -3.8945  -3.8759  -3.5908  -3.5624  -3.5268  -3.4538
    -3.3557  -3.3443  -3.1130  -3.0108  -2.6534  -2.3806  -2.3681  -2.2657
    -2.1149  -1.9735  -1.3482  -1.1395  -1.0121  -0.8248  -0.6706  -0.6591
    -0.5665  -0.4180  -0.3297  -0.2717   0.0458   0.1259   0.2294   0.5602
     0.6558   0.7373

     the Fermi energy is    -4.3250 ev

!    total energy              =   -3432.56103649 Ry
     estimated scf accuracy    <          9.8E-10 Ry
     smearing contrib. (-TS)   =       0.03864138 Ry
     internal energy E=F+TS    =   -3432.59967787 Ry

     The total energy is F=E-TS. E is the sum of the following terms:
     one-electron contribution =  -25576.83171441 Ry
     hartree contribution      =   12766.02555238 Ry
     xc contribution           =    -446.51815170 Ry
     ewald contribution        =    9897.52387212 Ry
     one-center paw contrib.   =    -266.55666117 Ry
     electrostatic embedding   =      -0.04236413 Ry
     cavitation energy         =       0.02085461 Ry
     PV energy                 =      -0.07962545 Ry
     correction to one-el term =     193.85855989 Ry

     WARNING: you are using the parabolic pbc correction;
              the potential shift above must be added to 
              band and Fermi energies.

     convergence has been achieved in  37 iterations

     negative rho (up, down):  1.523E-04 0.000E+00

     Forces acting on atoms (cartesian axes, Ry/au):

     atom    1 type  1   force =    -0.01278162   -0.00590074   -0.00613974
     atom    2 type  1   force =    -0.00041905   -0.00005134   -0.01243949
     atom    3 type  1   force =    -0.00013652   -0.06504240    0.07869775
     atom    4 type  1   force =    -0.00050661   -0.00001636   -0.02105901
     atom    5 type  2   force =     0.03293750    0.00225409   -0.00001966
     atom    6 type  2   force =    -0.03294179   -0.01165354    0.00164125
     atom    7 type  1   force =    -0.00537731    0.05945975    0.00346456
     atom    8 type  1   force =     0.00591695    0.06243273    0.00240022
     atom    9 type  2   force =     0.00612335   -0.00222062    0.00738079
     atom   10 type  2   force =     0.00242734    0.00366892    0.01398700
     atom   11 type  1   force =    -0.00451894   -0.05903425    0.00206495
     atom   12 type  1   force =     0.00155120   -0.04959527    0.00060568
     atom   13 type  1   force =    -0.00014286    0.00051634   -0.00893553
     atom   14 type  1   force =     0.00019750    0.00021624   -0.00112336
     atom   15 type  1   force =    -0.00227266   -0.00010703   -0.00389934
     atom   16 type  1   force =    -0.00052671   -0.00020819    0.01215173
     atom   17 type  2   force =     0.01216932    0.00144454    0.00000000
     atom   18 type  2   force =    -0.01105495   -0.00086042    0.00000000
     atom   19 type  1   force =    -0.00622717   -0.05137867    0.00000000
     atom   20 type  1   force =     0.00383795   -0.08137158    0.00000000
     atom   21 type  2   force =    -0.01264402    0.00288678    0.00000000
     atom   22 type  2   force =     0.01614989   -0.00710083    0.00000000
     atom   23 type  1   force =    -0.00453985    0.04962826    0.00000000
     atom   24 type  1   force =     0.00346312    0.08673597    0.00000000
     atom   25 type  1   force =    -0.00227266   -0.00010703    0.00389934
     atom   26 type  1   force =    -0.00052671   -0.00020819   -0.01215173
     atom   27 type  1   force =    -0.00014286    0.00051634    0.00893553
     atom   28 type  1   force =     0.00019750    0.00021624    0.00112336
     atom   29 type  2   force =     0.03293750    0.00225409    0.00001966
     atom   30 type  2   force =    -0.03294179   -0.01165354   -0.00164125
     atom   31 type  1   force =    -0.00537731    0.05945975   -0.00346456
     atom   32 type  1   force =     0.00591695    0.06243273   -0.00240022
     atom   33 type  2   force =     0.00612335   -0.00222062   -0.00738079
     atom   34 type  2   force =     0.00242734    0.00366892   -0.01398700
     atom   35 type  1   force =    -0.00451894   -0.05903425   -0.00206495
     atom   36 type  1   force =     0.00155120   -0.04959527   -0.00060568
     atom   37 type  1   force =    -0.00013652   -0.06504240   -0.07869775
     atom   38 type  1   force =    -0.00050661   -0.00001636    0.02105901
     atom   39 type  1   force =    -0.01278162   -0.00590074    0.00613974
     atom   40 type  1   force =    -0.00041905   -0.00005134    0.01243949
     atom   41 type  3   force =     0.00983163    0.00386046   -0.00543549
     atom   42 type  3   force =     0.00983163    0.00386046    0.00543549
     atom   43 type  3   force =     0.00006144    0.06142917   -0.06588577
     atom   44 type  3   force =     0.00006144    0.06142917    0.06588577
     The non-local contrib.  to forces
     atom    1 type  1   force =     1.53210376    0.85715288    0.31268126
     atom    2 type  1   force =    -0.01086467   -0.01525206    1.29645102
     atom    3 type  1   force =     0.01545685    1.31619410   -0.38608339
     atom    4 type  1   force =    -0.00392275    0.03184949    1.07079041
     atom    5 type  2   force =     0.01871923   -0.00054754   -0.00632094
     atom    6 type  2   force =    -0.01862444    0.00352792   -0.00949817
     atom    7 type  1   force =     0.08282122   -0.06235470   -0.09155017
     atom    8 type  1   force =    -0.05455358   -0.07560303   -0.03236611
     atom    9 type  2   force =     0.00409766    0.00277639    0.02344986
     atom   10 type  2   force =    -0.00159322    0.00148159   -0.06274087
     atom   11 type  1   force =     0.03495096    0.05432334   -0.04927646
     atom   12 type  1   force =    -0.00176889    0.01931593   -0.03951826
     atom   13 type  1   force =    -0.00800424   -0.00177842    0.08427434
     atom   14 type  1   force =     0.00761888    0.03698691   -0.01104278
     atom   15 type  1   force =    -0.01245242   -0.00004556   -0.06750366
     atom   16 type  1   force =     0.00190216    0.00331979    0.25828395
     atom   17 type  2   force =    -0.00644638    0.00071522    0.00000000
     atom   18 type  2   force =     0.00273430   -0.00058050    0.00000000
     atom   19 type  1   force =     0.04546774    0.08350795    0.00000000
     atom   20 type  1   force =    -0.03755783    0.02726363    0.00000000
     atom   21 type  2   force =     0.01752592   -0.00090499    0.00000000
     atom   22 type  2   force =     0.00538336   -0.00221118    0.00000000
     atom   23 type  1   force =     0.03210724   -0.08140106    0.00000000
     atom   24 type  1   force =    -0.02263246   -0.03864486    0.00000000
     atom   25 type  1   force =    -0.01245242   -0.00004556    0.06750366
     atom   26 type  1   force =     0.00190216    0.00331979   -0.25828395
     atom   27 type  1   force =    -0.00800424   -0.00177842   -0.08427434
     atom   28 type  1   force =     0.00761888    0.03698691    0.01104278
     atom   29 type  2   force =     0.01871923   -0.00054754    0.00632094
     atom   30 type  2   force =    -0.01862444    0.00352792    0.00949817
     atom   31 type  1   force =     0.08282122   -0.06235470    0.09155017
     atom   32 type  1   force =    -0.05455358   -0.07560303    0.03236611
     atom   33 type  2   force =     0.00409766    0.00277639   -0.02344986
     atom   34 type  2   force =    -0.00159322    0.00148159    0.06274087
     atom   35 type  1   force =     0.03495096    0.05432334    0.04927646
     atom   36 type  1   force =    -0.00176889    0.01931593    0.03951826
     atom   37 type  1   force =     0.01545685    1.31619410    0.38608339
     atom   38 type  1   force =    -0.00392275    0.03184949   -1.07079041
     atom   39 type  1   force =     1.53210376    0.85715288   -0.31268126
     atom   40 type  1   force =    -0.01086467   -0.01525206   -1.29645102
     atom   41 type  3   force =    -0.08521252   -0.05167243    0.04992482
     atom   42 type  3   force =    -0.08521252   -0.05167243   -0.04992482
     atom   43 type  3   force =    -0.00083386   -0.08284093    0.09764412
     atom   44 type  3   force =    -0.00083386   -0.08284093   -0.09764412
     The ionic contribution  to forces
     atom    1 type  1   force =    -2.69779328   -1.40128119  -96.49433484
     atom    2 type  1   force =     0.21011040    0.14727045 -101.97465729
     atom    3 type  1   force =    -0.11767845   -2.53315924  -91.57449195
     atom    4 type  1   force =     0.07586617   -0.12437431  -94.43545726
     atom    5 type  2   force =    -2.57758364   -0.04385806 -172.83259529
     atom    6 type  2   force =     2.61634768   -0.55579254 -173.71544326
     atom    7 type  1   force =    -0.18551818    0.77560248  -62.41371893
     atom    8 type  1   force =    -0.10276433    0.89119495  -64.07201919
     atom    9 type  2   force =    -0.02154798    0.24399818 -168.48336646
     atom   10 type  2   force =     0.37158817    0.23098610 -175.98641013
     atom   11 type  1   force =     0.07671071   -0.77307777  -63.79476371
     atom   12 type  1   force =    -0.30112465   -0.41465706  -63.51847968
     atom   13 type  1   force =     0.05428746   -0.01670938  -39.11845924
     atom   14 type  1   force =    -0.05290095   -0.15931563  -37.90643868
     atom   15 type  1   force =    -0.04090270   -0.03529810  -24.84657591
     atom   16 type  1   force =    -0.04040899    0.05073662  -28.05859490
     atom   17 type  2   force =     0.30235962    0.10947740   -0.00045152
     atom   18 type  2   force =    -0.24166035    0.04706731   -0.00045363
     atom   19 type  1   force =    -0.39066760   -0.63705908   -0.00008042
     atom   20 type  1   force =     0.38616656   -0.77635661   -0.00007898
     atom   21 type  2   force =     0.72927755    0.11701322   -0.00024890
     atom   22 type  2   force =    -0.27333595   -0.21805945   -0.00024654
     atom   23 type  1   force =    -0.30747083    0.53863471   -0.00007964
     atom   24 type  1   force =     0.28517892    0.97259415   -0.00007912
     atom   25 type  1   force =    -0.04090882   -0.03529866   24.84634760
     atom   26 type  1   force =    -0.04041243    0.05073689   28.05844806
     atom   27 type  1   force =     0.05428835   -0.01670970   39.11875808
     atom   28 type  1   force =    -0.05290344   -0.15931900   37.90676395
     atom   29 type  2   force =    -2.57752636   -0.04386316  172.83283990
     atom   30 type  2   force =     2.61629207   -0.55580028  173.71568688
     atom   31 type  1   force =    -0.18551549    0.77557189   62.41378326
     atom   32 type  1   force =    -0.10276659    0.89116692   64.07208414
     atom   33 type  2   force =    -0.02155666    0.24399956  168.48348965
     atom   34 type  2   force =     0.37159325    0.23098678  175.98655458
     atom   35 type  1   force =     0.07671281   -0.77304494   63.79482421
     atom   36 type  1   force =    -0.30112563   -0.41462729   63.51854731
     atom   37 type  1   force =    -0.11768235   -2.53342707   91.57442904
     atom   38 type  1   force =     0.07586602   -0.12436957   94.43562824
     atom   39 type  1   force =    -2.69787299   -1.40132581   96.49443279
     atom   40 type  1   force =     0.21011215    0.14726926  101.97472052
     atom   41 type  3   force =     2.47852464    1.61573761  -16.67173183
     atom   42 type  3   force =     2.47860555    1.61578413   16.67175327
     atom   43 type  3   force =     0.00986887    2.02534267  -18.02998663
     atom   44 type  3   force =     0.00987168    2.02561265   18.03015247
     The local contribution  to forces
     atom    1 type  1   force =     1.07720535    0.55741102   96.18113259
     atom    2 type  1   force =    -0.13389943   -0.13481965  100.61331965
     atom    3 type  1   force =     0.07705541    1.13268731   92.09969659
     atom    4 type  1   force =    -0.05415405    0.08981123   93.30911111
     atom    5 type  2   force =     2.63481552    0.04358715  172.86984965
     atom    6 type  2   force =    -2.67141571    0.52681580  173.71737420
     atom    7 type  1   force =     0.11190390   -0.65004324   62.51691506
     atom    8 type  1   force =     0.14850705   -0.74394694   64.09722553
     atom    9 type  2   force =    -0.01151933   -0.24030282  168.47809947
     atom   10 type  2   force =    -0.32896074   -0.22639817  176.01400671
     atom   11 type  1   force =    -0.10388837    0.65703372   63.85721544
     atom   12 type  1   force =     0.29323078    0.34029464   63.53993061
     atom   13 type  1   force =    -0.04963535    0.01793639   39.03074795
     atom   14 type  1   force =     0.04857400    0.12249440   37.91174601
     atom   15 type  1   force =     0.04901315    0.03564620   24.90997911
     atom   16 type  1   force =     0.04009389   -0.05393003   27.81246307
     atom   17 type  2   force =    -0.28644545   -0.10932948   -0.00583163
     atom   18 type  2   force =     0.23048295   -0.04774843   -0.00583904
     atom   19 type  1   force =     0.34072516    0.50210564   -0.00246573
     atom   20 type  1   force =    -0.34639579    0.66692138   -0.00247759
     atom   21 type  2   force =    -0.75597370   -0.11286958   -0.00607509
     atom   22 type  2   force =     0.28088094    0.21377000   -0.00609943
     atom   23 type  1   force =     0.27237710   -0.40765538   -0.00246612
     atom   24 type  1   force =    -0.26051438   -0.84658771   -0.00247971
     atom   25 type  1   force =     0.04900209    0.03564623  -24.91175279
     atom   26 type  1   force =     0.04008791   -0.05393340  -27.81423055
     atom   27 type  1   force =    -0.04963669    0.01793795  -39.03251654
     atom   28 type  1   force =     0.04857298    0.12249345  -37.91348595
     atom   29 type  2   force =     2.63483740    0.04358139 -172.87598872
     atom   30 type  2   force =    -2.67143710    0.52682836 -173.72351046
     atom   31 type  1   force =     0.11192618   -0.65003091  -62.51937700
     atom   32 type  1   force =     0.14848569   -0.74393483  -64.09970189
     atom   33 type  2   force =    -0.01151880   -0.24031861 -168.48392728
     atom   34 type  2   force =    -0.32897062   -0.22639078 -176.01972679
     atom   35 type  1   force =    -0.10386193    0.65702006  -63.85968351
     atom   36 type  1   force =     0.29320658    0.34028395  -63.54239969
     atom   37 type  1   force =     0.07705758    1.13280765  -92.10343350
     atom   38 type  1   force =    -0.05415274    0.08979661  -93.31305949
     atom   39 type  1   force =     1.07724110    0.55741586  -96.18268957
     atom   40 type  1   force =    -0.13390725   -0.13481143 -100.61468268
     atom   41 type  3   force =    -2.40160717   -1.57334346   16.63621892
     atom   42 type  3   force =    -2.40160717   -1.57334346  -16.63621892
     atom   43 type  3   force =    -0.01434356   -1.88478330   17.89691343
     atom   44 type  3   force =    -0.01434356   -1.88478330  -17.89691343
     The core correction contribution to forces
     atom    1 type  1   force =    -0.01536305   -0.00846777   -0.00341506
     atom    2 type  1   force =     0.00013259    0.00012462   -0.01064354
     atom    3 type  1   force =    -0.00014189   -0.01260109    0.00230095
     atom    4 type  1   force =     0.00004016   -0.00036426   -0.01082765
     atom    5 type  2   force =     0.00000000    0.00000000    0.00000000
     atom    6 type  2   force =     0.00000000    0.00000000    0.00000000
     atom    7 type  1   force =    -0.00104602   -0.00061177    0.00088340
     atom    8 type  1   force =     0.00080231   -0.00050878    0.00035007
     atom    9 type  2   force =     0.00000000    0.00000000    0.00000000
     atom   10 type  2   force =     0.00000000    0.00000000    0.00000000
     atom   11 type  1   force =    -0.00054506    0.00078414    0.00050797
     atom   12 type  1   force =     0.00028287    0.00095593    0.00035555
     atom   13 type  1   force =     0.00008014    0.00002657   -0.00062824
     atom   14 type  1   force =    -0.00007542   -0.00044310    0.00038299
     atom   15 type  1   force =     0.00018000    0.00001499    0.00034523
     atom   16 type  1   force =    -0.00002697   -0.00006353   -0.00346254
     atom   17 type  2   force =     0.00000000    0.00000000    0.00000000
     atom   18 type  2   force =     0.00000000    0.00000000    0.00000000
     atom   19 type  1   force =    -0.00041138    0.00027800   -0.00000215
     atom   20 type  1   force =     0.00030562    0.00108173   -0.00000221
     atom   21 type  2   force =     0.00000000    0.00000000    0.00000000
     atom   22 type  2   force =     0.00000000    0.00000000    0.00000000
     atom   23 type  1   force =    -0.00026909   -0.00025463   -0.00000212
     atom   24 type  1   force =     0.00016493   -0.00105877   -0.00000221
     atom   25 type  1   force =     0.00017995    0.00001501   -0.00034738
     atom   26 type  1   force =    -0.00002695   -0.00006357    0.00346047
     atom   27 type  1   force =     0.00008014    0.00002658    0.00062607
     atom   28 type  1   force =    -0.00007541   -0.00044315   -0.00038529
     atom   29 type  2   force =     0.00000000    0.00000000    0.00000000
     atom   30 type  2   force =     0.00000000    0.00000000    0.00000000
     atom   31 type  1   force =    -0.00104598   -0.00061178   -0.00088518
     atom   32 type  1   force =     0.00080222   -0.00050874   -0.00035201
     atom   33 type  2   force =     0.00000000    0.00000000    0.00000000
     atom   34 type  2   force =     0.00000000    0.00000000    0.00000000
     atom   35 type  1   force =    -0.00054493    0.00078418   -0.00050988
     atom   36 type  1   force =     0.00028282    0.00095595   -0.00035737
     atom   37 type  1   force =    -0.00014185   -0.01260282   -0.00230536
     atom   38 type  1   force =     0.00004015   -0.00036445    0.01082330
     atom   39 type  1   force =    -0.01536369   -0.00846817    0.00341260
     atom   40 type  1   force =     0.00013258    0.00012467    0.01064193
     atom   41 type  3   force =     0.00000000    0.00000000    0.00000000
     atom   42 type  3   force =     0.00000000    0.00000000    0.00000000
     atom   43 type  3   force =     0.00000000    0.00000000    0.00000000
     atom   44 type  3   force =     0.00000000    0.00000000    0.00000000
     The Hubbard contrib.    to forces
     atom    1 type  1   force =     0.00000000    0.00000000    0.00000000
     atom    2 type  1   force =     0.00000000    0.00000000    0.00000000
     atom    3 type  1   force =     0.00000000    0.00000000    0.00000000
     atom    4 type  1   force =     0.00000000    0.00000000    0.00000000
     atom    5 type  2   force =     0.00000000    0.00000000    0.00000000
     atom    6 type  2   force =     0.00000000    0.00000000    0.00000000
     atom    7 type  1   force =     0.00000000    0.00000000    0.00000000
     atom    8 type  1   force =     0.00000000    0.00000000    0.00000000
     atom    9 type  2   force =     0.00000000    0.00000000    0.00000000
     atom   10 type  2   force =     0.00000000    0.00000000    0.00000000
     atom   11 type  1   force =     0.00000000    0.00000000    0.00000000
     atom   12 type  1   force =     0.00000000    0.00000000    0.00000000
     atom   13 type  1   force =     0.00000000    0.00000000    0.00000000
     atom   14 type  1   force =     0.00000000    0.00000000    0.00000000
     atom   15 type  1   force =     0.00000000    0.00000000    0.00000000
     atom   16 type  1   force =     0.00000000    0.00000000    0.00000000
     atom   17 type  2   force =     0.00000000    0.00000000    0.00000000
     atom   18 type  2   force =     0.00000000    0.00000000    0.00000000
     atom   19 type  1   force =     0.00000000    0.00000000    0.00000000
     atom   20 type  1   force =     0.00000000    0.00000000    0.00000000
     atom   21 type  2   force =     0.00000000    0.00000000    0.00000000
     atom   22 type  2   force =     0.00000000    0.00000000    0.00000000
     atom   23 type  1   force =     0.00000000    0.00000000    0.00000000
     atom   24 type  1   force =     0.00000000    0.00000000    0.00000000
     atom   25 type  1   force =     0.00000000    0.00000000    0.00000000
     atom   26 type  1   force =     0.00000000    0.00000000    0.00000000
     atom   27 type  1   force =     0.00000000    0.00000000    0.00000000
     atom   28 type  1   force =     0.00000000    0.00000000    0.00000000
     atom   29 type  2   force =     0.00000000    0.00000000    0.00000000
     atom   30 type  2   force =     0.00000000    0.00000000    0.00000000
     atom   31 type  1   force =     0.00000000    0.00000000    0.00000000
     atom   32 type  1   force =     0.00000000    0.00000000    0.00000000
     atom   33 type  2   force =     0.00000000    0.00000000    0.00000000
     atom   34 type  2   force =     0.00000000    0.00000000    0.00000000
     atom   35 type  1   force =     0.00000000    0.00000000    0.00000000
     atom   36 type  1   force =     0.00000000    0.00000000    0.00000000
     atom   37 type  1   force =     0.00000000    0.00000000    0.00000000
     atom   38 type  1   force =     0.00000000    0.00000000    0.00000000
     atom   39 type  1   force =     0.00000000    0.00000000    0.00000000
     atom   40 type  1   force =     0.00000000    0.00000000    0.00000000
     atom   41 type  3   force =     0.00000000    0.00000000    0.00000000
     atom   42 type  3   force =     0.00000000    0.00000000    0.00000000
     atom   43 type  3   force =     0.00000000    0.00000000    0.00000000
     atom   44 type  3   force =     0.00000000    0.00000000    0.00000000
     The SCF correction term to forces
     atom    1 type  1   force =     0.00000633    0.00000008    0.00001792
     atom    2 type  1   force =    -0.00000518   -0.00000022    0.00001316
     atom    3 type  1   force =     0.00000811    0.00000194    0.00001143
     atom    4 type  1   force =    -0.00000965    0.00000061    0.00001598
     atom    5 type  2   force =    -0.00000873    0.00000041    0.00002999
     atom    6 type  2   force =     0.00000703    0.00000210    0.00003216
     atom    7 type  1   force =    -0.00000935   -0.00000604    0.00000999
     atom    8 type  1   force =     0.00000954    0.00000110    0.00001090
     atom    9 type  2   force =     0.00001322   -0.00000109    0.00001751
     atom   10 type  2   force =    -0.00001275   -0.00000115    0.00004678
     atom   11 type  1   force =    -0.00000930    0.00000582    0.00000986
     atom   12 type  1   force =     0.00000960   -0.00000174    0.00001138
     atom   13 type  1   force =     0.00000763    0.00000023    0.00000759
     atom   14 type  1   force =    -0.00000771    0.00000031    0.00002267
     atom   15 type  1   force =     0.00000374   -0.00000019    0.00000380
     atom   16 type  1   force =    -0.00000374   -0.00000013    0.00001441
     atom   17 type  2   force =     0.00000707    0.00000037    0.00002247
     atom   18 type  2   force =    -0.00000788    0.00000030    0.00002266
     atom   19 type  1   force =     0.00001008   -0.00000896    0.00000812
     atom   20 type  1   force =    -0.00001004   -0.00001080    0.00000817
     atom   21 type  2   force =     0.00000470   -0.00000026    0.00002253
     atom   22 type  2   force =    -0.00000572   -0.00000041    0.00002263
     atom   23 type  1   force =     0.00001010    0.00000899    0.00000814
     atom   24 type  1   force =    -0.00000991    0.00001093    0.00000820
     atom   25 type  1   force =     0.00000370   -0.00000017    0.00000663
     atom   26 type  1   force =    -0.00000369   -0.00000010   -0.00000501
     atom   27 type  1   force =     0.00000754    0.00000021   -0.00000384
     atom   28 type  1   force =    -0.00000762    0.00000028   -0.00001883
     atom   29 type  2   force =    -0.00000834    0.00000038   -0.00004104
     atom   30 type  2   force =     0.00000665    0.00000193   -0.00004345
     atom   31 type  1   force =    -0.00000917   -0.00000658   -0.00001391
     atom   32 type  1   force =     0.00000935    0.00000051   -0.00001500
     atom   33 type  2   force =     0.00001310   -0.00000102   -0.00002961
     atom   34 type  2   force =    -0.00001259   -0.00000104   -0.00005987
     atom   35 type  1   force =    -0.00000910    0.00000638   -0.00001390
     atom   36 type  1   force =     0.00000939   -0.00000113   -0.00001542
     atom   37 type  1   force =     0.00000807    0.00000191   -0.00001573
     atom   38 type  1   force =    -0.00000960    0.00000059   -0.00002080
     atom   39 type  1   force =     0.00000630    0.00000004   -0.00002056
     atom   40 type  1   force =    -0.00000517   -0.00000019   -0.00001595
     atom   41 type  3   force =    -0.00000098   -0.00000021    0.00000293
     atom   42 type  3   force =    -0.00000093   -0.00000017   -0.00000333
     atom   43 type  3   force =     0.00000069    0.00000001    0.00000262
     atom   44 type  3   force =     0.00000069    0.00000000   -0.00000312

     Total force =     0.303049     Total SCF correction =     0.000152

     BFGS Geometry Optimization
     Energy error            =      0.0E+00 Ry
     Gradient error          =      8.7E-02 Ry/Bohr

     number of scf cycles    =   1
     number of bfgs steps    =   0

     energy             new  =   -3432.5610364908 Ry

     new trust radius        =       0.1020973442 bohr
     new conv_thr            =       0.0000000010 Ry


ATOMIC_POSITIONS (crystal)
O            -0.0019473916        0.4847526251        0.2713033069
O             0.4952968036        0.5006372690        0.2724098084
O             0.0010342442       -0.0078593057        0.3003622358
O             0.4996516672       -0.0044177745        0.3090027590
Ru            0.2566174911       -0.0016151376        0.3567724855
Ru            0.7440601071       -0.0017631499        0.3564170845
O             0.2477266461        0.3098566821        0.3591325060
O             0.7522316680        0.3098362425        0.3568158847
Ru           -0.0016735694        0.4986234226        0.3582996859
Ru            0.4988876929        0.4974576637        0.3502534895
O             0.2440843508        0.6871061323        0.3571539393
O             0.7537259151        0.6863588063        0.3579089218
O            -0.0008697459       -0.0015244497        0.4123388460
O             0.5012003316       -0.0036330743        0.4123471395
O             0.0033258537        0.4982531383        0.4463233151
O             0.5022605714        0.4988534652        0.4413851311
Ru            0.0002061628       -0.0016175170        0.5000010000
Ru            0.5018007375       -0.0011855619        0.5000010000
O             0.2519727059        0.1861394559        0.5000010000
O             0.7495120276        0.1869770243        0.5000010000
Ru            0.2573047892        0.4987511345        0.5000010000
Ru            0.7463083016        0.4986185517        0.5000010000
O             0.2516999607        0.8112679412        0.5000010000
O             0.7501886432        0.8104386828        0.5000010000
O             0.0033258537        0.4982531383        0.5536776849
O             0.5022605714        0.4988534652        0.5586158689
O            -0.0008697459       -0.0015244497        0.5876621540
O             0.5012003316       -0.0036330743        0.5876538605
Ru            0.2566174911       -0.0016151376        0.6432285145
Ru            0.7440601071       -0.0017631499        0.6435839155
O             0.2477266461        0.3098566821        0.6408684940
O             0.7522316680        0.3098362425        0.6431851153
Ru           -0.0016735694        0.4986234226        0.6417013141
Ru            0.4988876929        0.4974576637        0.6497475105
O             0.2440843508        0.6871061323        0.6428470607
O             0.7537259151        0.6863588063        0.6420920782
O             0.0010342442       -0.0078593057        0.6996397642
O             0.4996516672       -0.0044177745        0.6909992410
O            -0.0019473916        0.4847526251        0.7286976931
O             0.4952968036        0.5006372690        0.7275911916
H             0.1155029561        0.5613542456        0.2528289956
H             0.1155029561        0.5613542456        0.7471710044
H             0.0020227440        0.1072453436        0.2651279960
H             0.0020227440        0.1072453436        0.7348720040



     Writing config-only to output data dir /storage/home/mgm6007/ixd4/Maria/StrainJin_Files/RuO2-110-0-02/RuO2-110-0-02.save/
     NEW-OLD atomic charge density approx. for the potential

     Check: negative core charge=   -0.000001

     negative rho (up, down):  1.429E-04 0.000E+00

     add environment contribution to local potential
     Polarization accuracy = 6.2E-12, # of iterations =  44

     total cpu time spent up to now is    11157.7 secs

     per-process dynamical memory:   214.7 Mb

     Self-consistent Calculation

     iteration #  1     ecut=    50.00 Ry     beta= 0.70
     Davidson diagonalization with overlap
     ethr =  1.00E-06,  avg # of iterations = 10.0

     negative rho (up, down):  2.861E-04 0.000E+00

     add environment contribution to local potential
     Polarization accuracy = 5.1E-12, # of iterations =  45

     total cpu time spent up to now is    11404.3 secs

     total energy              =   -3432.58519119 Ry
     estimated scf accuracy    <       0.04080416 Ry
     electrostatic embedding   =      -0.04026136 Ry
     cavitation energy         =       0.02087293 Ry
     PV energy                 =      -0.07978104 Ry
     correction to one-el term =     194.18741723 Ry

     iteration #  2     ecut=    50.00 Ry     beta= 0.70
     Davidson diagonalization with overlap
     ethr =  1.12E-05,  avg # of iterations =  2.0

     negative rho (up, down):  2.323E-04 0.000E+00

     add environment contribution to local potential
     Polarization accuracy = 4.5E-12, # of iterations =  45

     total cpu time spent up to now is    11613.5 secs

     total energy              =   -3432.58754272 Ry
     estimated scf accuracy    <       0.07454050 Ry
     electrostatic embedding   =      -0.04106582 Ry
     cavitation energy         =       0.02088605 Ry
     PV energy                 =      -0.07974298 Ry
     correction to one-el term =     194.32596801 Ry

     iteration #  3     ecut=    50.00 Ry     beta= 0.70
     Davidson diagonalization with overlap
     ethr =  1.12E-05,  avg # of iterations =  1.0

     negative rho (up, down):  2.159E-04 0.000E+00

     add environment contribution to local potential
     Polarization accuracy = 4.5E-12, # of iterations =  45

     total cpu time spent up to now is    11876.3 secs

     total energy              =   -3432.59121134 Ry
     estimated scf accuracy    <       0.00322936 Ry
     electrostatic embedding   =      -0.04127511 Ry
     cavitation energy         =       0.02087362 Ry
     PV energy                 =      -0.07976004 Ry
     correction to one-el term =     194.26143742 Ry

     iteration #  4     ecut=    50.00 Ry     beta= 0.70
     Davidson diagonalization with overlap
     ethr =  8.87E-07,  avg # of iterations =  2.0

     negative rho (up, down):  2.012E-04 0.000E+00

     add environment contribution to local potential
     Polarization accuracy = 4.9E-12, # of iterations =  45

     total cpu time spent up to now is    12104.9 secs

     total energy              =   -3432.59137179 Ry
     estimated scf accuracy    <       0.00125388 Ry
     electrostatic embedding   =      -0.04208666 Ry
     cavitation energy         =       0.02086853 Ry
     PV energy                 =      -0.07976151 Ry
     correction to one-el term =     194.22420366 Ry

     iteration #  5     ecut=    50.00 Ry     beta= 0.70
     Davidson diagonalization with overlap
     ethr =  3.44E-07,  avg # of iterations =  2.0

     negative rho (up, down):  1.666E-04 0.000E+00

     add environment contribution to local potential
     Polarization accuracy = 4.8E-12, # of iterations =  45

     total cpu time spent up to now is    12379.9 secs

     total energy              =   -3432.59150025 Ry
     estimated scf accuracy    <       0.00056721 Ry
     electrostatic embedding   =      -0.04270556 Ry
     cavitation energy         =       0.02086357 Ry
     PV energy                 =      -0.07976116 Ry
     correction to one-el term =     194.18150900 Ry

     iteration #  6     ecut=    50.00 Ry     beta= 0.70
     Davidson diagonalization with overlap
     ethr =  1.56E-07,  avg # of iterations =  1.5

     negative rho (up, down):  1.433E-04 0.000E+00

     add environment contribution to local potential
     Polarization accuracy = 4.5E-12, # of iterations =  45

     total cpu time spent up to now is    12638.7 secs

     total energy              =   -3432.59155023 Ry
     estimated scf accuracy    <       0.00006450 Ry
     electrostatic embedding   =      -0.04310112 Ry
     cavitation energy         =       0.02086015 Ry
     PV energy                 =      -0.07976437 Ry
     correction to one-el term =     194.12836250 Ry

     iteration #  7     ecut=    50.00 Ry     beta= 0.70
     Davidson diagonalization with overlap
     ethr =  1.77E-08,  avg # of iterations =  2.0

     negative rho (up, down):  1.049E-04 0.000E+00

     add environment contribution to local potential
     Polarization accuracy = 3.7E-12, # of iterations =  45

     total cpu time spent up to now is    12815.0 secs

     total energy              =   -3432.59156462 Ry
     estimated scf accuracy    <       0.00002242 Ry
     electrostatic embedding   =      -0.04341628 Ry
     cavitation energy         =       0.02085848 Ry
     PV energy                 =      -0.07976354 Ry
     correction to one-el term =     194.08613850 Ry

     iteration #  8     ecut=    50.00 Ry     beta= 0.70
     Davidson diagonalization with overlap
     ethr =  6.16E-09,  avg # of iterations =  2.5

     negative rho (up, down):  8.305E-05 0.000E+00

     add environment contribution to local potential
     Polarization accuracy = 3.0E-12, # of iterations =  45

     total cpu time spent up to now is    12958.7 secs

     total energy              =   -3432.59157966 Ry
     estimated scf accuracy    <       0.00002036 Ry
     electrostatic embedding   =      -0.04388200 Ry
     cavitation energy         =       0.02085637 Ry
     PV energy                 =      -0.07976216 Ry
     correction to one-el term =     194.01087517 Ry

     iteration #  9     ecut=    50.00 Ry     beta= 0.70
     Davidson diagonalization with overlap
     ethr =  5.59E-09,  avg # of iterations =  2.0

     negative rho (up, down):  6.599E-05 0.000E+00

     add environment contribution to local potential
     Polarization accuracy = 3.5E-12, # of iterations =  45

     total cpu time spent up to now is    13254.8 secs

     total energy              =   -3432.59158743 Ry
     estimated scf accuracy    <       0.00000597 Ry
     electrostatic embedding   =      -0.04422874 Ry
     cavitation energy         =       0.02085566 Ry
     PV energy                 =      -0.07975983 Ry
     correction to one-el term =     193.95522213 Ry

     iteration # 10     ecut=    50.00 Ry     beta= 0.70
     Davidson diagonalization with overlap
     ethr =  1.64E-09,  avg # of iterations =  3.5

     negative rho (up, down):  6.626E-05 0.000E+00

     add environment contribution to local potential
     Polarization accuracy = 3.7E-12, # of iterations =  45

     total cpu time spent up to now is    13426.6 secs

     total energy              =   -3432.59159108 Ry
     estimated scf accuracy    <       0.00000206 Ry
     electrostatic embedding   =      -0.04460397 Ry
     cavitation energy         =       0.02085604 Ry
     PV energy                 =      -0.07975570 Ry
     correction to one-el term =     193.89377666 Ry

     iteration # 11     ecut=    50.00 Ry     beta= 0.70
     Davidson diagonalization with overlap
     ethr =  5.67E-10,  avg # of iterations =  2.0

     negative rho (up, down):  6.809E-05 0.000E+00

     add environment contribution to local potential
     Polarization accuracy = 3.8E-12, # of iterations =  45

     total cpu time spent up to now is    14075.5 secs

     total energy              =   -3432.59159118 Ry
     estimated scf accuracy    <       0.00000252 Ry
     electrostatic embedding   =      -0.04468276 Ry
     cavitation energy         =       0.02085655 Ry
     PV energy                 =      -0.07975396 Ry
     correction to one-el term =     193.88097668 Ry

     iteration # 12     ecut=    50.00 Ry     beta= 0.70
     Davidson diagonalization with overlap
     ethr =  5.67E-10,  avg # of iterations =  2.0

     negative rho (up, down):  7.645E-05 0.000E+00

     add environment contribution to local potential
     Polarization accuracy = 3.8E-12, # of iterations =  45

     total cpu time spent up to now is    14225.4 secs

     total energy              =   -3432.59159119 Ry
     estimated scf accuracy    <       0.00000080 Ry
     electrostatic embedding   =      -0.04480459 Ry
     cavitation energy         =       0.02085712 Ry
     PV energy                 =      -0.07975138 Ry
     correction to one-el term =     193.86234888 Ry

     iteration # 13     ecut=    50.00 Ry     beta= 0.70
     Davidson diagonalization with overlap
     ethr =  2.19E-10,  avg # of iterations =  1.5

     negative rho (up, down):  8.581E-05 0.000E+00

     add environment contribution to local potential
     Polarization accuracy = 3.6E-12, # of iterations =  46

     total cpu time spent up to now is    14386.3 secs

     total energy              =   -3432.59159135 Ry
     estimated scf accuracy    <       0.00000048 Ry
     electrostatic embedding   =      -0.04479417 Ry
     cavitation energy         =       0.02085740 Ry
     PV energy                 =      -0.07975043 Ry
     correction to one-el term =     193.86518167 Ry

     iteration # 14     ecut=    50.00 Ry     beta= 0.70
     Davidson diagonalization with overlap
     ethr =  1.32E-10,  avg # of iterations =  1.5

     negative rho (up, down):  1.135E-04 0.000E+00

     add environment contribution to local potential
     Polarization accuracy = 7.0E-12, # of iterations =  45

     total cpu time spent up to now is    14540.5 secs

     total energy              =   -3432.59159145 Ry
     estimated scf accuracy    <       0.00000027 Ry
     electrostatic embedding   =      -0.04478501 Ry
     cavitation energy         =       0.02085746 Ry
     PV energy                 =      -0.07974977 Ry
     correction to one-el term =     193.86834407 Ry

     iteration # 15     ecut=    50.00 Ry     beta= 0.70
     Davidson diagonalization with overlap
     ethr =  7.47E-11,  avg # of iterations =  2.0

     negative rho (up, down):  1.247E-04 0.000E+00

     add environment contribution to local potential
     Polarization accuracy = 4.1E-12, # of iterations =  45

     total cpu time spent up to now is    14687.3 secs

     total energy              =   -3432.59159170 Ry
     estimated scf accuracy    <       0.00000007 Ry
     electrostatic embedding   =      -0.04475293 Ry
     cavitation energy         =       0.02085715 Ry
     PV energy                 =      -0.07974891 Ry
     correction to one-el term =     193.87762863 Ry

     iteration # 16     ecut=    50.00 Ry     beta= 0.70
     Davidson diagonalization with overlap
[...]
     atom   41 type  3   force =     0.00000000    0.00000000    0.00000000
     atom   42 type  3   force =     0.00000000    0.00000000    0.00000000
     atom   43 type  3   force =     0.00000000    0.00000000    0.00000000
     atom   44 type  3   force =     0.00000000    0.00000000    0.00000000
     The Hubbard contrib.    to forces
     atom    1 type  1   force =     0.00000000    0.00000000    0.00000000
     atom    2 type  1   force =     0.00000000    0.00000000    0.00000000
     atom    3 type  1   force =     0.00000000    0.00000000    0.00000000
     atom    4 type  1   force =     0.00000000    0.00000000    0.00000000
     atom    5 type  2   force =     0.00000000    0.00000000    0.00000000
     atom    6 type  2   force =     0.00000000    0.00000000    0.00000000
     atom    7 type  1   force =     0.00000000    0.00000000    0.00000000
     atom    8 type  1   force =     0.00000000    0.00000000    0.00000000
     atom    9 type  2   force =     0.00000000    0.00000000    0.00000000
     atom   10 type  2   force =     0.00000000    0.00000000    0.00000000
     atom   11 type  1   force =     0.00000000    0.00000000    0.00000000
     atom   12 type  1   force =     0.00000000    0.00000000    0.00000000
     atom   13 type  1   force =     0.00000000    0.00000000    0.00000000
     atom   14 type  1   force =     0.00000000    0.00000000    0.00000000
     atom   15 type  1   force =     0.00000000    0.00000000    0.00000000
     atom   16 type  1   force =     0.00000000    0.00000000    0.00000000
     atom   17 type  2   force =     0.00000000    0.00000000    0.00000000
     atom   18 type  2   force =     0.00000000    0.00000000    0.00000000
     atom   19 type  1   force =     0.00000000    0.00000000    0.00000000
     atom   20 type  1   force =     0.00000000    0.00000000    0.00000000
     atom   21 type  2   force =     0.00000000    0.00000000    0.00000000
     atom   22 type  2   force =     0.00000000    0.00000000    0.00000000
     atom   23 type  1   force =     0.00000000    0.00000000    0.00000000
     atom   24 type  1   force =     0.00000000    0.00000000    0.00000000
     atom   25 type  1   force =     0.00000000    0.00000000    0.00000000
     atom   26 type  1   force =     0.00000000    0.00000000    0.00000000
     atom   27 type  1   force =     0.00000000    0.00000000    0.00000000
     atom   28 type  1   force =     0.00000000    0.00000000    0.00000000
     atom   29 type  2   force =     0.00000000    0.00000000    0.00000000
     atom   30 type  2   force =     0.00000000    0.00000000    0.00000000
     atom   31 type  1   force =     0.00000000    0.00000000    0.00000000
     atom   32 type  1   force =     0.00000000    0.00000000    0.00000000
     atom   33 type  2   force =     0.00000000    0.00000000    0.00000000
     atom   34 type  2   force =     0.00000000    0.00000000    0.00000000
     atom   35 type  1   force =     0.00000000    0.00000000    0.00000000
     atom   36 type  1   force =     0.00000000    0.00000000    0.00000000
     atom   37 type  1   force =     0.00000000    0.00000000    0.00000000
     atom   38 type  1   force =     0.00000000    0.00000000    0.00000000
     atom   39 type  1   force =     0.00000000    0.00000000    0.00000000
     atom   40 type  1   force =     0.00000000    0.00000000    0.00000000
     atom   41 type  3   force =     0.00000000    0.00000000    0.00000000
     atom   42 type  3   force =     0.00000000    0.00000000    0.00000000
     atom   43 type  3   force =     0.00000000    0.00000000    0.00000000
     atom   44 type  3   force =     0.00000000    0.00000000    0.00000000
     The SCF correction term to forces
     atom    1 type  1   force =     0.00000015    0.00000000    0.00000102
     atom    2 type  1   force =    -0.00000011   -0.00000099    0.00000088
     atom    3 type  1   force =     0.00000022    0.00000005    0.00000138
     atom    4 type  1   force =    -0.00000005    0.00000069    0.00000117
     atom    5 type  2   force =    -0.00000032    0.00000099    0.00000142
     atom    6 type  2   force =     0.00000043    0.00000082    0.00000307
     atom    7 type  1   force =    -0.00000004   -0.00000061    0.00000025
     atom    8 type  1   force =     0.00000003   -0.00000076    0.00000105
     atom    9 type  2   force =    -0.00000048   -0.00000010    0.00000188
     atom   10 type  2   force =     0.00000015   -0.00000131    0.00000267
     atom   11 type  1   force =    -0.00000044    0.00000027    0.00000055
     atom   12 type  1   force =     0.00000044    0.00000045    0.00000122
     atom   13 type  1   force =    -0.00000052    0.00000004    0.00000064
     atom   14 type  1   force =     0.00000052    0.00000031    0.00000035
     atom   15 type  1   force =    -0.00000179   -0.00000001    0.00000052
     atom   16 type  1   force =     0.00000163   -0.00000022    0.00000045
     atom   17 type  2   force =    -0.00000147   -0.00000020    0.00000021
     atom   18 type  2   force =     0.00000159    0.00000043    0.00000020
     atom   19 type  1   force =    -0.00000032   -0.00000117    0.00000008
     atom   20 type  1   force =     0.00000028    0.00000072    0.00000007
     atom   21 type  2   force =    -0.00000050   -0.00000035    0.00000020
     atom   22 type  2   force =     0.00000093   -0.00000035    0.00000019
     atom   23 type  1   force =    -0.00000054    0.00000132    0.00000008
     atom   24 type  1   force =     0.00000049   -0.00000056    0.00000007
     atom   25 type  1   force =    -0.00000179   -0.00000001   -0.00000037
     atom   26 type  1   force =     0.00000162   -0.00000022   -0.00000032
     atom   27 type  1   force =    -0.00000052    0.00000005   -0.00000052
     atom   28 type  1   force =     0.00000051    0.00000031   -0.00000024
     atom   29 type  2   force =    -0.00000034    0.00000100   -0.00000130
     atom   30 type  2   force =     0.00000046    0.00000083   -0.00000295
     atom   31 type  1   force =    -0.00000005   -0.00000062   -0.00000019
     atom   32 type  1   force =     0.00000005   -0.00000077   -0.00000100
     atom   33 type  2   force =    -0.00000047   -0.00000010   -0.00000175
     atom   34 type  2   force =     0.00000015   -0.00000132   -0.00000257
     atom   35 type  1   force =    -0.00000045    0.00000028   -0.00000051
     atom   36 type  1   force =     0.00000046    0.00000045   -0.00000118
     atom   37 type  1   force =     0.00000022    0.00000006   -0.00000141
     atom   38 type  1   force =    -0.00000005    0.00000069   -0.00000119
     atom   39 type  1   force =     0.00000015    0.00000000   -0.00000107
     atom   40 type  1   force =    -0.00000012   -0.00000099   -0.00000091
     atom   41 type  3   force =    -0.00000002   -0.00000002    0.00000015
     atom   42 type  3   force =    -0.00000002   -0.00000002   -0.00000016
     atom   43 type  3   force =     0.00000004    0.00000001    0.00000019
     atom   44 type  3   force =     0.00000004    0.00000001   -0.00000020

     Total force =     0.003428     Total SCF correction =     0.000010
     Energy error            =      2.9E-05 Ry
     Gradient error          =      1.1E-03 Ry/Bohr

     number of scf cycles    =  37
     number of bfgs steps    =  36

     energy             old  =   -3432.6100475778 Ry
     energy             new  =   -3432.6100761505 Ry

     CASE: energy            _new < energy            _old

     new trust radius        =       0.0061620907 bohr
     new conv_thr            =            1.0E-11 Ry


ATOMIC_POSITIONS (crystal)
O            -0.0050392631        0.4472747672        0.2711524034
O             0.4987017991        0.4862996080        0.2735424043
O            -0.0000487224        0.0086465928        0.2998987188
O             0.4999994119       -0.0002591694        0.3079487609
Ru            0.2574949468       -0.0000692119        0.3563486657
Ru            0.7427616530       -0.0000370975        0.3562665538
O             0.2503800662        0.3124717749        0.3629502076
O             0.7510854422        0.3116167750        0.3611494874
Ru           -0.0006792045        0.4987728992        0.3586312114
Ru            0.5001624141        0.4983274868        0.3509890504
O             0.2436804216        0.6876411604        0.3549335577
O             0.7562064748        0.6867612321        0.3559312258
O            -0.0001500469       -0.0017853729        0.4115488509
O             0.5001533903       -0.0047841050        0.4117890825
O             0.0048917974        0.5042133126        0.4467485542
O             0.5042459978        0.5060601260        0.4436487460
Ru            0.0003409185        0.0018549961        0.5000010000
Ru            0.5004925927        0.0023881308        0.5000010000
O             0.2497546134        0.1892548830        0.5000010000
O             0.7494833908        0.1891216601        0.5000010000
Ru            0.2566817683        0.5028390706        0.5000010000
Ru            0.7510635032        0.5029879348        0.5000010000
O             0.2498054407        0.8163683162        0.5000010000
O             0.7500070479        0.8161332623        0.5000010000
O             0.0048917974        0.5042133126        0.5532524458
O             0.5042459978        0.5060601260        0.5563522540
O            -0.0001500469       -0.0017853729        0.5884521491
O             0.5001533903       -0.0047841050        0.5882119175
Ru            0.2574949468       -0.0000692119        0.6436523343
Ru            0.7427616530       -0.0000370975        0.6437344462
O             0.2503800662        0.3124717749        0.6370507924
O             0.7510854422        0.3116167750        0.6388515126
Ru           -0.0006792045        0.4987728992        0.6413697886
Ru            0.5001624141        0.4983274868        0.6490119496
O             0.2436804216        0.6876411604        0.6450674423
O             0.7562064748        0.6867612321        0.6440697742
O            -0.0000487224        0.0086465928        0.7001032812
O             0.4999994119       -0.0002591694        0.6920532391
O            -0.0050392631        0.4472747672        0.7288485966
O             0.4987017991        0.4862996080        0.7264585957
H             0.1108434474        0.5109515056        0.2491479951
H             0.1108434474        0.5109515056        0.7508520049
H            -0.0008696634        0.1516405895        0.2759130672
H            -0.0008696634        0.1516405895        0.7240869328



     Writing config-only to output data dir /storage/home/mgm6007/ixd4/Maria/StrainJin_Files/RuO2-110-0-02/RuO2-110-0-02.save/
     NEW-OLD atomic charge density approx. for the potential

     Check: negative core charge=   -0.000001

     negative rho (up, down):  1.586E-04 0.000E+00

     add environment contribution to local potential
     Polarization accuracy = 2.6E-12, # of iterations =  45

     total cpu time spent up to now is   218066.8 secs

     per-process dynamical memory:   214.7 Mb

     Self-consistent Calculation

     iteration #  1     ecut=    50.00 Ry     beta= 0.70
     Davidson diagonalization with overlap
     ethr =  1.00E-06,  avg # of iterations =  3.0

     Threshold (ethr) on eigenvalues was too large:
     Diagonalizing with lowered threshold

     Davidson diagonalization with overlap
     ethr =  4.71E-09,  avg # of iterations =  3.0

     negative rho (up, down):  1.679E-04 0.000E+00

     add environment contribution to local potential
     Polarization accuracy = 2.8E-12, # of iterations =  45

     total cpu time spent up to now is   218213.8 secs

     total energy              =   -3432.61009471 Ry
     estimated scf accuracy    <       0.00001874 Ry
     electrostatic embedding   =      -0.03332481 Ry
     cavitation energy         =       0.02091624 Ry
     PV energy                 =      -0.07942321 Ry
     correction to one-el term =     197.05729986 Ry

     iteration #  2     ecut=    50.00 Ry     beta= 0.70
     Davidson diagonalization with overlap
     ethr =  5.15E-09,  avg # of iterations =  1.0

     negative rho (up, down):  1.694E-04 0.000E+00

     add environment contribution to local potential
     Polarization accuracy = 2.8E-12, # of iterations =  45

     total cpu time spent up to now is   218348.5 secs

     total energy              =   -3432.61009472 Ry
     estimated scf accuracy    <       0.00001815 Ry
     electrostatic embedding   =      -0.03327570 Ry
     cavitation energy         =       0.02091607 Ry
     PV energy                 =      -0.07942594 Ry
     correction to one-el term =     197.06765017 Ry

     iteration #  3     ecut=    50.00 Ry     beta= 0.70
     Davidson diagonalization with overlap
     ethr =  4.99E-09,  avg # of iterations =  1.0

     negative rho (up, down):  1.740E-04 0.000E+00

     add environment contribution to local potential
     Polarization accuracy = 2.6E-12, # of iterations =  45

     total cpu time spent up to now is   218492.6 secs

     total energy              =   -3432.61009523 Ry
     estimated scf accuracy    <       0.00000437 Ry
     electrostatic embedding   =      -0.03326153 Ry
     cavitation energy         =       0.02091583 Ry
     PV energy                 =      -0.07942695 Ry
     correction to one-el term =     197.06955524 Ry

     iteration #  4     ecut=    50.00 Ry     beta= 0.70
     Davidson diagonalization with overlap
     ethr =  1.20E-09,  avg # of iterations =  1.5

     negative rho (up, down):  1.738E-04 0.000E+00

     add environment contribution to local potential
     Polarization accuracy = 2.5E-12, # of iterations =  45

     total cpu time spent up to now is   218641.0 secs

     total energy              =   -3432.61009525 Ry
     estimated scf accuracy    <       0.00000050 Ry
     electrostatic embedding   =      -0.03322898 Ry
     cavitation energy         =       0.02091591 Ry
     PV energy                 =      -0.07942867 Ry
     correction to one-el term =     197.07592169 Ry

     iteration #  5     ecut=    50.00 Ry     beta= 0.70
     Davidson diagonalization with overlap
     ethr =  1.38E-10,  avg # of iterations =  2.0

     negative rho (up, down):  1.733E-04 0.000E+00

     add environment contribution to local potential
     Polarization accuracy = 2.6E-12, # of iterations =  45

     total cpu time spent up to now is   218786.7 secs

     total energy              =   -3432.61009523 Ry
     estimated scf accuracy    <       0.00000025 Ry
     electrostatic embedding   =      -0.03322245 Ry
     cavitation energy         =       0.02091598 Ry
     PV energy                 =      -0.07942892 Ry
     correction to one-el term =     197.07700224 Ry

     iteration #  6     ecut=    50.00 Ry     beta= 0.70
     Davidson diagonalization with overlap
     ethr =  6.97E-11,  avg # of iterations =  1.0

     negative rho (up, down):  1.719E-04 0.000E+00

     add environment contribution to local potential
     Polarization accuracy = 3.3E-12, # of iterations =  45

     total cpu time spent up to now is   218934.7 secs

     total energy              =   -3432.61009520 Ry
     estimated scf accuracy    <       0.00000005 Ry
     electrostatic embedding   =      -0.03321731 Ry
     cavitation energy         =       0.02091605 Ry
     PV energy                 =      -0.07942905 Ry
     correction to one-el term =     197.07784148 Ry

     iteration #  7     ecut=    50.00 Ry     beta= 0.70
     Davidson diagonalization with overlap
     ethr =  1.31E-11,  avg # of iterations =  3.5

     negative rho (up, down):  1.705E-04 0.000E+00

     add environment contribution to local potential
     Polarization accuracy = 2.5E-12, # of iterations =  45

     total cpu time spent up to now is   219086.9 secs

     total energy              =   -3432.61009515 Ry
     estimated scf accuracy    <       0.00000004 Ry
     electrostatic embedding   =      -0.03321093 Ry
     cavitation energy         =       0.02091612 Ry
     PV energy                 =      -0.07942920 Ry
     correction to one-el term =     197.07880740 Ry

     iteration #  8     ecut=    50.00 Ry     beta= 0.70
     Davidson diagonalization with overlap
     ethr =  9.86E-12,  avg # of iterations =  1.5

     negative rho (up, down):  1.686E-04 0.000E+00

     add environment contribution to local potential
     Polarization accuracy = 2.5E-12, # of iterations =  45

     total cpu time spent up to now is   219233.2 secs

     total energy              =   -3432.61009512 Ry
     estimated scf accuracy    <       0.00000002 Ry
     electrostatic embedding   =      -0.03320681 Ry
     cavitation energy         =       0.02091616 Ry
     PV energy                 =      -0.07942931 Ry
     correction to one-el term =     197.07939486 Ry

     iteration #  9     ecut=    50.00 Ry     beta= 0.70
     Davidson diagonalization with overlap
     ethr =  4.53E-12,  avg # of iterations =  2.0

     negative rho (up, down):  1.664E-04 0.000E+00

     add environment contribution to local potential
     Polarization accuracy = 4.0E-12, # of iterations =  45

     total cpu time spent up to now is   219387.3 secs

     total energy              =   -3432.61009509 Ry
     estimated scf accuracy    <          5.8E-09 Ry
     electrostatic embedding   =      -0.03320267 Ry
     cavitation energy         =       0.02091620 Ry
     PV energy                 =      -0.07942942 Ry
     correction to one-el term =     197.08001483 Ry

     iteration # 10     ecut=    50.00 Ry     beta= 0.70
     Davidson diagonalization with overlap
     ethr =  1.59E-12,  avg # of iterations =  3.5

     negative rho (up, down):  1.644E-04 0.000E+00

     add environment contribution to local potential
     Polarization accuracy = 9.6E-12, # of iterations =  45

     total cpu time spent up to now is   219529.2 secs

     total energy              =   -3432.61009507 Ry
     estimated scf accuracy    <          2.4E-09 Ry
     electrostatic embedding   =      -0.03319987 Ry
     cavitation energy         =       0.02091620 Ry
     PV energy                 =      -0.07942953 Ry
     correction to one-el term =     197.08035726 Ry

     iteration # 11     ecut=    50.00 Ry     beta= 0.70
     Davidson diagonalization with overlap
     ethr =  6.69E-13,  avg # of iterations =  2.5

     negative rho (up, down):  1.626E-04 0.000E+00

     add environment contribution to local potential
     Polarization accuracy = 6.1E-12, # of iterations =  45

     total cpu time spent up to now is   219669.5 secs

     total energy              =   -3432.61009506 Ry
     estimated scf accuracy    <          4.1E-09 Ry
     electrostatic embedding   =      -0.03319818 Ry
     cavitation energy         =       0.02091621 Ry
     PV energy                 =      -0.07942961 Ry
     correction to one-el term =     197.08046753 Ry

     iteration # 12     ecut=    50.00 Ry     beta= 0.70
     Davidson diagonalization with overlap
     ethr =  6.69E-13,  avg # of iterations =  1.0

     negative rho (up, down):  1.609E-04 0.000E+00

     add environment contribution to local potential
     Polarization accuracy = 5.3E-12, # of iterations =  45

     total cpu time spent up to now is   219801.9 secs

     total energy              =   -3432.61009505 Ry
     estimated scf accuracy    <          9.3E-10 Ry
     electrostatic embedding   =      -0.03319706 Ry
     cavitation energy         =       0.02091621 Ry
     PV energy                 =      -0.07942968 Ry
     correction to one-el term =     197.08051817 Ry

     iteration # 13     ecut=    50.00 Ry     beta= 0.70
     Davidson diagonalization with overlap
     ethr =  2.57E-13,  avg # of iterations =  1.5

     negative rho (up, down):  1.594E-04 0.000E+00

     add environment contribution to local potential
     Polarization accuracy = 9.5E-12, # of iterations =  45
