
     Program PWSCF v.7.2 starts on 26Jul2023 at 11:24:41 
        Git branch: heads/qe-7.2
        Last git commit: b4c5e8deeb7d1863e7553a87b45f8d22c21926a5
        Last git commit date: Mon Mar 27 16:12:09 2023 +0000
        Last git commit subject: Merge branch 'merge_fix_hubbard' into 'develop'

     This program is part of the open-source Quantum ESPRESSO suite
     for quantum simulation of materials; please cite
         "P. Giannozzi et al., J. Phys.:Condens. Matter 21 395502 (2009);
         "P. Giannozzi et al., J. Phys.:Condens. Matter 29 465901 (2017);
         "P. Giannozzi et al., J. Chem. Phys. 152 154105 (2020);
          URL http://www.quantum-espresso.org", 
     in publications or presentations arising from this work. More details at
     http://www.quantum-espresso.org/quote

     Parallel version (MPI), running on    20 processors

     MPI processes distributed on     1 nodes
     100905 MiB available memory on the printing compute node when the environment starts
 
     Reading input from RuO2-110-0-025.in

     Current dimensions of program PWSCF are:
     Max number of different atomic species (ntypx) = 10
     Max number of k-points (npk) =  40000
     Max angular momentum in pseudopotentials (lmaxx) =  4
 
     Reading input from environ.in:
     * Environ restarting
     * setting up water environment
     * using electronic solvent mode
     * setting boundary derivatives method to SCCS default
     
     file O.pbe-n-kjpaw_psl.0.1.UPF: wavefunction(s)  2P renormalized
     Message from routine setup:
     using ibrav=0 with symmetry is DISCOURAGED, use correct ibrav instead
 
     R & G space division:  proc/nbgrp/npool/nimage =      20
     Subspace diagonalization in iterative solution of the eigenvalue problem:
     one sub-group per band group will be used
     scalapack distributed-memory algorithm (size of sub-group:  2*  2 procs)

 
     Parallelization info
     --------------------
     sticks:   dense  smooth     PW     G-vecs:    dense   smooth      PW
     Min         276     110     29                54982    13912    1877
     Max         277     111     30                54993    13923    1888
     Sum        5537    2217    585              1099789   278381   37601
 
     Using Slab Decomposition
 


     bravais-lattice index     =            0
     lattice parameter (alat)  =      12.3824  a.u.
     unit-cell volume          =    5825.9133 (a.u.)^3
     number of atoms/cell      =           46
     number of atomic types    =            3
     number of electrons       =       366.00
     number of Kohn-Sham states=          220
     kinetic-energy cutoff     =      50.0000  Ry
     charge density cutoff     =     500.0000  Ry
     scf convergence threshold =      1.0E-09
     mixing beta               =       0.7000
     number of iterations used =            8  local-TF  mixing
     energy convergence thresh.=      1.0E-04
     force convergence thresh. =      1.0E-04
     Exchange-correlation= PBE
                           (   1   4   3   4   0   0   0)
     nstep                     =          200


     ================================================================================
 
                                  Environ Setup Summary

     ================================================================================
 
     Please cite

          O. Andreussi, I. Dabo and N. Marzari, J. Chem. Phys. 136, 064102 (2012)

     in publications or presentations arising from this work.

     ================================================================================
 
     Parameters
     ==========

     compensation onset threshold      =               0.1000E+00
     static permittivity               =                    78.30
     surface tension in input (dyn/cm) =                    47.90
     surface tension in internal units =               0.6153E-04
     external pressure in input (GPa)  =                    -0.36
     external pressure in inter. units =              -0.2447E-04

     Solvent Boundary
     ================

     solvent mode                      =               electronic
     derivatives method                =                    chain
     numerical core for derivatives    =                      fft
     switching function adopted        =                     SCCS
     density limit for vacuum region   =               0.5000E-02
     density limit for bulk solvent    =               0.1000E-03

     Electrostatic Setup
     ===================

     electrostatic problem to solve    =              generalized
     numerical solver adopted          =                       cg
     type of auxiliary density adopted =                     none
     numerical core for poisson        =                      fft
     type of pbc corrections           =                parabolic
     numerical core for corrections    =                      1da

     ================================================================================
 

     celldm(1)=  12.382447  celldm(2)=   0.000000  celldm(3)=   0.000000
     celldm(4)=   0.000000  celldm(5)=   0.000000  celldm(6)=   0.000000

     crystal axes: (cart. coord. in units of alat)
               a(1) = (   1.000000   0.000000   0.000000 )  
               a(2) = (   0.000000   0.908473   0.000000 )  
               a(3) = (   0.000000   0.000000   3.377790 )  

     reciprocal axes: (cart. coord. in units 2 pi/alat)
               b(1) = (  1.000000  0.000000  0.000000 )  
               b(2) = (  0.000000  1.100748  0.000000 )  
               b(3) = (  0.000000  0.000000  0.296052 )  


     PseudoPot. # 1 for O  read from file:
     /gpfs/group/ixd4/default/Simon/pseudopotentials/materialscloud/SSSP_1.3.0_PBE_efficiency/O.pbe-n-kjpaw_psl.0.1.UPF
     MD5 check sum: 0234752ac141de4415c5fc33072bef88
     Pseudo is Projector augmented-wave + core cor, Zval =  6.0
     Generated using "atomic" code by A. Dal Corso  v.5.0.99 svn rev. 10869
     Shape of augmentation charge: BESSEL
     Using radial grid of 1095 points,  4 beta functions with: 
                l(1) =   0
                l(2) =   0
                l(3) =   1
                l(4) =   1
     Q(r) pseudized with 0 coefficients 


     PseudoPot. # 2 for Ru read from file:
     /gpfs/group/ixd4/default/Simon/pseudopotentials/materialscloud/SSSP_1.3.0_PBE_efficiency/Ru_ONCV_PBE-1.0.oncvpsp.upf
     MD5 check sum: be037bb81c227cfb9b1461a9f099f4bd
     Pseudo is Norm-conserving, Zval = 16.0
     Generated using ONCVPSP code by D. R. Hamann
     Using radial grid of 1458 points,  6 beta functions with: 
                l(1) =   0
                l(2) =   0
                l(3) =   1
                l(4) =   1
                l(5) =   2
                l(6) =   2

     PseudoPot. # 3 for H  read from file:
     /gpfs/group/ixd4/default/Simon/pseudopotentials/materialscloud/SSSP_1.3.0_PBE_efficiency/H.pbe-rrkjus_psl.1.0.0.UPF
     MD5 check sum: f52b6d4d1c606e5624b1dc7b2218f220
     Pseudo is Ultrasoft, Zval =  1.0
     Generated using "atomic" code by A. Dal Corso  v.5.1
     Using radial grid of  929 points,  2 beta functions with: 
                l(1) =   0
                l(2) =   0
     Q(r) pseudized with 0 coefficients 


     atomic species   valence    mass     pseudopotential
        O              6.00    15.99940     O ( 1.00)
        Ru            16.00   101.07000     Ru( 1.00)
        H              1.00     1.00794     H ( 1.00)

      2 Sym. Ops. (no inversion) found



   Cartesian axes

     site n.     atom                  positions (alat units)
         1           O   tau(   1) = (   0.0095699   0.4154037   0.9150510  )
         2           O   tau(   2) = (   0.4788182   0.4513515   0.9227369  )
         3           O   tau(   3) = (  -0.0006375   0.0123116   1.0146875  )
         4           O   tau(   4) = (   0.4974963  -0.0028887   1.0247250  )
         5           Ru  tau(   5) = (   0.2484214  -0.0034276   1.2123890  )
         6           Ru  tau(   6) = (   0.7485081  -0.0033902   1.2104460  )
         7           O   tau(   7) = (   0.2494148   0.2712918   1.2188891  )
         8           O   tau(   8) = (   0.7495469   0.2741910   1.2093915  )
         9           Ru  tau(   9) = (   0.0006120   0.4512267   1.2105243  )
        10           Ru  tau(  10) = (   0.5019652   0.4482531   1.1851328  )
        11           O   tau(  11) = (   0.2403653   0.6316663   1.2040528  )
        12           O   tau(  12) = (   0.7568314   0.6273441   1.1992226  )
        13           O   tau(  13) = (  -0.0035577  -0.0020209   1.3887543  )
        14           O   tau(  14) = (   0.5004145  -0.0078760   1.3920037  )
        15           O   tau(  15) = (   0.0000326   0.4544332   1.5075042  )
        16           O   tau(  16) = (   0.4968152   0.4557665   1.4880461  )
        17           Ru  tau(  17) = (  -0.0054068  -0.0011008   1.6888985  )
        18           Ru  tau(  18) = (   0.5015240   0.0000428   1.6888985  )
        19           O   tau(  19) = (   0.2501320   0.1725152   1.6888985  )
        20           O   tau(  20) = (   0.7459413   0.1795983   1.6888985  )
        21           Ru  tau(  21) = (   0.2557099   0.4548331   1.6888985  )
        22           Ru  tau(  22) = (   0.7435521   0.4543420   1.6888985  )
        23           O   tau(  23) = (   0.2483498   0.7357286   1.6888985  )
        24           O   tau(  24) = (   0.7480089   0.7281963   1.6888985  )
        25           O   tau(  25) = (   0.0000326   0.4544332   1.8702895  )
        26           O   tau(  26) = (   0.4968152   0.4557665   1.8897476  )
        27           O   tau(  27) = (  -0.0035577  -0.0020209   1.9890394  )
        28           O   tau(  28) = (   0.5004145  -0.0078760   1.9857900  )
        29           Ru  tau(  29) = (   0.2484214  -0.0034276   2.1654047  )
        30           Ru  tau(  30) = (   0.7485081  -0.0033902   2.1673477  )
        31           O   tau(  31) = (   0.2494148   0.2712918   2.1589046  )
        32           O   tau(  32) = (   0.7495469   0.2741910   2.1684022  )
        33           Ru  tau(  33) = (   0.0006120   0.4512267   2.1672694  )
        34           Ru  tau(  34) = (   0.5019652   0.4482531   2.1926609  )
        35           O   tau(  35) = (   0.2403653   0.6316663   2.1737409  )
        36           O   tau(  36) = (   0.7568314   0.6273441   2.1785711  )
        37           O   tau(  37) = (  -0.0006375   0.0123116   2.3631096  )
        38           O   tau(  38) = (   0.4974963  -0.0028887   2.3530721  )
        39           O   tau(  39) = (   0.0095699   0.4154037   2.4627427  )
        40           O   tau(  40) = (   0.4788182   0.4513515   2.4550568  )
        41           H   tau(  41) = (   0.1533998   0.4368196   0.8663468  )
        42           H   tau(  42) = (   0.1533998   0.4368196   2.5114435  )
        43           H   tau(  43) = (  -0.0003164   0.1299899   0.9377607  )
        44           H   tau(  44) = (  -0.0003164   0.1299899   2.4400297  )
        45           H   tau(  45) = (   0.4960295   0.8652604   0.8824542  )
        46           H   tau(  46) = (   0.4960295   0.8652604   2.4953361  )

     number of k points=     2  Marzari-Vanderbilt smearing, width (Ry)=  0.0300
                       cart. coord. in units 2pi/alat
        k(    1) = (   0.2500000   0.2751871   0.0000000), wk =   1.0000000
        k(    2) = (  -0.2500000   0.2751871   0.0000000), wk =   1.0000000

     Dense  grid:  1099789 G-vectors     FFT dimensions: (  90,  81, 300)

     Smooth grid:   278381 G-vectors     FFT dimensions: (  60,  54, 192)

     Estimated max dynamical RAM per process >     180.34 MB

     Estimated total dynamical RAM >       3.52 GB

     Check: negative core charge=   -0.000001

     Initial potential from superposition of free atoms

     starting charge     365.9933, renormalised to     366.0000

     add environment contribution to local potential
     Polarization accuracy = 2.3E-12, # of iterations =  26

     negative rho (up, down):  3.227E-05 0.000E+00
     Starting wfcs are  238 randomized atomic wfcs
     Checking if some PAW data can be deallocated... 

     total cpu time spent up to now is      988.3 secs

     per-process dynamical memory:   150.3 Mb

     Self-consistent Calculation

     iteration #  1     ecut=    50.00 Ry     beta= 0.70
     Davidson diagonalization with overlap
     ethr =  1.00E-02,  avg # of iterations =  2.0

     negative rho (up, down):  1.615E-08 0.000E+00

     total cpu time spent up to now is     1270.6 secs

     total energy              =   -3432.73007731 Ry
     estimated scf accuracy    <       9.65157311 Ry
     electrostatic embedding   =      -0.00177045 Ry
     cavitation energy         =       0.01951031 Ry
     PV energy                 =      -0.08406099 Ry
     correction to one-el term =     220.81482984 Ry

     iteration #  2     ecut=    50.00 Ry     beta= 0.70
     Davidson diagonalization with overlap
     ethr =  2.64E-03,  avg # of iterations =  2.0

     total cpu time spent up to now is     1573.2 secs

     total energy              =   -3434.83040925 Ry
     estimated scf accuracy    <       2.11932937 Ry
     electrostatic embedding   =      -0.00270963 Ry
     cavitation energy         =       0.01943305 Ry
     PV energy                 =      -0.08463701 Ry
     correction to one-el term =     220.81766361 Ry

     iteration #  3     ecut=    50.00 Ry     beta= 0.70
     Davidson diagonalization with overlap
     ethr =  5.79E-04,  avg # of iterations =  1.0

     total cpu time spent up to now is     1878.3 secs

     total energy              =   -3435.01928629 Ry
     estimated scf accuracy    <       0.41652581 Ry
     electrostatic embedding   =      -0.00308380 Ry
     cavitation energy         =       0.01951684 Ry
     PV energy                 =      -0.08470663 Ry
     correction to one-el term =     220.81861978 Ry

     iteration #  4     ecut=    50.00 Ry     beta= 0.70
     Davidson diagonalization with overlap
     ethr =  1.14E-04,  avg # of iterations =  2.0

     total cpu time spent up to now is     2200.1 secs

     total energy              =   -3435.05738386 Ry
     estimated scf accuracy    <       0.50662434 Ry
     electrostatic embedding   =      -0.00318817 Ry
     cavitation energy         =       0.01971566 Ry
     PV energy                 =      -0.08418889 Ry
     correction to one-el term =     220.81855829 Ry

     iteration #  5     ecut=    50.00 Ry     beta= 0.70
     Davidson diagonalization with overlap
     ethr =  1.14E-04,  avg # of iterations =  1.0

     total cpu time spent up to now is     2451.2 secs

     total energy              =   -3435.05024036 Ry
     estimated scf accuracy    <       0.16813942 Ry
     electrostatic embedding   =      -0.00331435 Ry
     cavitation energy         =       0.01999373 Ry
     PV energy                 =      -0.08359228 Ry
     correction to one-el term =     220.81856028 Ry

     iteration #  6     ecut=    50.00 Ry     beta= 0.70
     Davidson diagonalization with overlap
     ethr =  4.59E-05,  avg # of iterations =  5.5

     add environment contribution to local potential
     Polarization accuracy = 3.9E-12, # of iterations =  36

     total cpu time spent up to now is     2705.2 secs

     total energy              =   -3435.04816140 Ry
     estimated scf accuracy    <       0.09964746 Ry
     electrostatic embedding   =      -0.00334863 Ry
     cavitation energy         =       0.02061232 Ry
     PV energy                 =      -0.08222276 Ry
     correction to one-el term =     220.81801888 Ry

     iteration #  7     ecut=    50.00 Ry     beta= 0.70
     Davidson diagonalization with overlap
     ethr =  2.72E-05,  avg # of iterations = 11.5

     add environment contribution to local potential
     Polarization accuracy = 5.9E-12, # of iterations =  37

     total cpu time spent up to now is     2984.4 secs

     total energy              =   -3435.07707891 Ry
     estimated scf accuracy    <       0.04710954 Ry
     electrostatic embedding   =      -0.03829421 Ry
     cavitation energy         =       0.02081156 Ry
     PV energy                 =      -0.08170006 Ry
     correction to one-el term =     189.19710719 Ry

     iteration #  8     ecut=    50.00 Ry     beta= 0.70
     Davidson diagonalization with overlap
     ethr =  1.29E-05,  avg # of iterations =  1.5

     add environment contribution to local potential
     Polarization accuracy = 4.4E-12, # of iterations =  43

     total cpu time spent up to now is     3241.3 secs

     total energy              =   -3435.07480359 Ry
     estimated scf accuracy    <       0.03529490 Ry
     electrostatic embedding   =      -0.04075827 Ry
     cavitation energy         =       0.02090284 Ry
     PV energy                 =      -0.08141034 Ry
     correction to one-el term =     188.42354492 Ry

     iteration #  9     ecut=    50.00 Ry     beta= 0.70
     Davidson diagonalization with overlap
     ethr =  9.64E-06,  avg # of iterations =  6.0

     add environment contribution to local potential
     Polarization accuracy = 3.6E-12, # of iterations =  49

     total cpu time spent up to now is     3520.5 secs

     total energy              =   -3435.07467620 Ry
     estimated scf accuracy    <       0.04259829 Ry
     electrostatic embedding   =      -0.04854744 Ry
     cavitation energy         =       0.02116885 Ry
     PV energy                 =      -0.08065122 Ry
     correction to one-el term =     186.27374252 Ry

     iteration # 10     ecut=    50.00 Ry     beta= 0.70
     Davidson diagonalization with overlap
     ethr =  9.64E-06,  avg # of iterations =  6.0

     add environment contribution to local potential
     Polarization accuracy = 3.4E-12, # of iterations =  49

     total cpu time spent up to now is     3759.9 secs

     total energy              =   -3435.07536017 Ry
     estimated scf accuracy    <       0.06224572 Ry
     electrostatic embedding   =      -0.06145603 Ry
     cavitation energy         =       0.02148103 Ry
     PV energy                 =      -0.07982710 Ry
     correction to one-el term =     183.90072125 Ry

     iteration # 11     ecut=    50.00 Ry     beta= 0.70
     Davidson diagonalization with overlap
     ethr =  9.64E-06,  avg # of iterations =  1.0

     negative rho (up, down):  1.471E-03 0.000E+00

     add environment contribution to local potential
     Polarization accuracy = 8.0E-12, # of iterations =  50

     total cpu time spent up to now is     4008.3 secs

     total energy              =   -3435.07571486 Ry
     estimated scf accuracy    <       0.03060996 Ry
     electrostatic embedding   =      -0.06369695 Ry
     cavitation energy         =       0.02139613 Ry
     PV energy                 =      -0.07981982 Ry
     correction to one-el term =     184.16395422 Ry

     iteration # 12     ecut=    50.00 Ry     beta= 0.70
     Davidson diagonalization with overlap
     ethr =  8.36E-06,  avg # of iterations =  2.0

     negative rho (up, down):  5.736E-04 0.000E+00

     add environment contribution to local potential
     Polarization accuracy = 5.1E-12, # of iterations =  49

     total cpu time spent up to now is     4345.6 secs

     total energy              =   -3435.07629080 Ry
     estimated scf accuracy    <       0.02141538 Ry
     electrostatic embedding   =      -0.07039916 Ry
     cavitation energy         =       0.02129312 Ry
     PV energy                 =      -0.07971428 Ry
     correction to one-el term =     184.52495742 Ry

     iteration # 13     ecut=    50.00 Ry     beta= 0.70
     Davidson diagonalization with overlap
     ethr =  5.85E-06,  avg # of iterations =  1.0

     negative rho (up, down):  9.147E-05 0.000E+00

     add environment contribution to local potential
     Polarization accuracy = 6.2E-12, # of iterations =  47

     total cpu time spent up to now is     4666.5 secs

     total energy              =   -3435.07673756 Ry
     estimated scf accuracy    <       0.01028655 Ry
     electrostatic embedding   =      -0.06880868 Ry
     cavitation energy         =       0.02120581 Ry
     PV energy                 =      -0.07982817 Ry
     correction to one-el term =     185.29697904 Ry

     iteration # 14     ecut=    50.00 Ry     beta= 0.70
     Davidson diagonalization with overlap
     ethr =  2.81E-06,  avg # of iterations =  8.5

     negative rho (up, down):  6.018E-06 0.000E+00

     add environment contribution to local potential
     Polarization accuracy = 5.8E-12, # of iterations =  46

     total cpu time spent up to now is     4990.0 secs

     total energy              =   -3435.07730202 Ry
     estimated scf accuracy    <       0.00556653 Ry
     electrostatic embedding   =      -0.06568384 Ry
     cavitation energy         =       0.02107370 Ry
     PV energy                 =      -0.08000902 Ry
     correction to one-el term =     186.52859273 Ry

     iteration # 15     ecut=    50.00 Ry     beta= 0.70
     Davidson diagonalization with overlap
     ethr =  1.52E-06,  avg # of iterations =  9.0

     negative rho (up, down):  4.760E-04 0.000E+00

     add environment contribution to local potential
     Polarization accuracy = 9.2E-12, # of iterations =  44

     total cpu time spent up to now is     5257.6 secs

     total energy              =   -3435.07786691 Ry
     estimated scf accuracy    <       0.00298346 Ry
     electrostatic embedding   =      -0.06315487 Ry
     cavitation energy         =       0.02098220 Ry
     PV energy                 =      -0.08012508 Ry
     correction to one-el term =     187.87334213 Ry

     iteration # 16     ecut=    50.00 Ry     beta= 0.70
     Davidson diagonalization with overlap
     ethr =  8.15E-07,  avg # of iterations = 11.0

     negative rho (up, down):  1.081E-03 0.000E+00

     add environment contribution to local potential
     Polarization accuracy = 3.6E-12, # of iterations =  45

     total cpu time spent up to now is     5533.9 secs

     total energy              =   -3435.07858506 Ry
     estimated scf accuracy    <       0.00024452 Ry
     electrostatic embedding   =      -0.05782614 Ry
     cavitation energy         =       0.02085813 Ry
     PV energy                 =      -0.08032987 Ry
     correction to one-el term =     189.58019218 Ry

     iteration # 17     ecut=    50.00 Ry     beta= 0.70
     Davidson diagonalization with overlap
     ethr =  6.68E-08,  avg # of iterations =  6.0

     negative rho (up, down):  6.730E-05 0.000E+00

     add environment contribution to local potential
     Polarization accuracy = 5.8E-12, # of iterations =  45

     total cpu time spent up to now is     5835.0 secs

     total energy              =   -3435.07875093 Ry
     estimated scf accuracy    <       0.00007644 Ry
     electrostatic embedding   =      -0.05549063 Ry
     cavitation energy         =       0.02088424 Ry
     PV energy                 =      -0.08031658 Ry
     correction to one-el term =     189.96895099 Ry

     iteration # 18     ecut=    50.00 Ry     beta= 0.70
     Davidson diagonalization with overlap
     ethr =  2.09E-08,  avg # of iterations =  3.0

     negative rho (up, down):  3.567E-04 0.000E+00

     add environment contribution to local potential
     Polarization accuracy = 7.3E-12, # of iterations =  45

     total cpu time spent up to now is     6152.0 secs

     total energy              =   -3435.07881235 Ry
     estimated scf accuracy    <       0.00005559 Ry
     electrostatic embedding   =      -0.05450012 Ry
     cavitation energy         =       0.02091479 Ry
     PV energy                 =      -0.08028205 Ry
     correction to one-el term =     189.99189890 Ry

     iteration # 19     ecut=    50.00 Ry     beta= 0.70
     Davidson diagonalization with overlap
     ethr =  1.52E-08,  avg # of iterations =  3.0

     negative rho (up, down):  1.151E-03 0.000E+00

     add environment contribution to local potential
     Polarization accuracy = 8.0E-12, # of iterations =  46

     total cpu time spent up to now is     6470.4 secs

     total energy              =   -3435.07885636 Ry
     estimated scf accuracy    <       0.00003801 Ry
     electrostatic embedding   =      -0.05347347 Ry
     cavitation energy         =       0.02092945 Ry
     PV energy                 =      -0.08026525 Ry
     correction to one-el term =     190.13151381 Ry

     iteration # 20     ecut=    50.00 Ry     beta= 0.70
     Davidson diagonalization with overlap
     ethr =  1.04E-08,  avg # of iterations =  3.0

     negative rho (up, down):  4.641E-04 0.000E+00

     add environment contribution to local potential
     Polarization accuracy = 9.7E-12, # of iterations =  46

     total cpu time spent up to now is     6693.3 secs

     total energy              =   -3435.07886624 Ry
     estimated scf accuracy    <       0.00001775 Ry
     electrostatic embedding   =      -0.05278776 Ry
     cavitation energy         =       0.02092710 Ry
     PV energy                 =      -0.08026629 Ry
     correction to one-el term =     190.26905577 Ry

     iteration # 21     ecut=    50.00 Ry     beta= 0.70
     Davidson diagonalization with overlap
     ethr =  4.85E-09,  avg # of iterations =  3.0

     negative rho (up, down):  1.502E-04 0.000E+00

     add environment contribution to local potential
     Polarization accuracy = 1.0E-11, # of iterations =  46

     total cpu time spent up to now is     6877.9 secs

     total energy              =   -3435.07887882 Ry
     estimated scf accuracy    <       0.00000772 Ry
     electrostatic embedding   =      -0.05210999 Ry
     cavitation energy         =       0.02093985 Ry
     PV energy                 =      -0.08025096 Ry
     correction to one-el term =     190.29275080 Ry

     iteration # 22     ecut=    50.00 Ry     beta= 0.70
     Davidson diagonalization with overlap
     ethr =  2.11E-09,  avg # of iterations =  3.0

     negative rho (up, down):  1.137E-04 0.000E+00

     add environment contribution to local potential
     Polarization accuracy = 2.5E-12, # of iterations =  47

     total cpu time spent up to now is     7194.6 secs

     total energy              =   -3435.07888226 Ry
     estimated scf accuracy    <       0.00000277 Ry
     electrostatic embedding   =      -0.05188744 Ry
     cavitation energy         =       0.02094413 Ry
     PV energy                 =      -0.08024507 Ry
     correction to one-el term =     190.28122348 Ry

     iteration # 23     ecut=    50.00 Ry     beta= 0.70
     Davidson diagonalization with overlap
     ethr =  7.57E-10,  avg # of iterations =  2.0

     negative rho (up, down):  1.604E-04 0.000E+00

     add environment contribution to local potential
     Polarization accuracy = 4.9E-12, # of iterations =  46

     total cpu time spent up to now is     7513.8 secs

     total energy              =   -3435.07888358 Ry
     estimated scf accuracy    <       0.00000152 Ry
     electrostatic embedding   =      -0.05178930 Ry
     cavitation energy         =       0.02094309 Ry
     PV energy                 =      -0.08024624 Ry
     correction to one-el term =     190.27615993 Ry

     iteration # 24     ecut=    50.00 Ry     beta= 0.70
     Davidson diagonalization with overlap
     ethr =  4.16E-10,  avg # of iterations =  2.0

     negative rho (up, down):  1.356E-04 0.000E+00

     add environment contribution to local potential
     Polarization accuracy = 9.8E-12, # of iterations =  46

     total cpu time spent up to now is     7807.7 secs

     total energy              =   -3435.07888443 Ry
     estimated scf accuracy    <       0.00000047 Ry
     electrostatic embedding   =      -0.05171220 Ry
     cavitation energy         =       0.02094130 Ry
     PV energy                 =      -0.08024943 Ry
     correction to one-el term =     190.28541572 Ry

     iteration # 25     ecut=    50.00 Ry     beta= 0.70
     Davidson diagonalization with overlap
     ethr =  1.28E-10,  avg # of iterations =  3.0

     negative rho (up, down):  1.296E-04 0.000E+00

     add environment contribution to local potential
     Polarization accuracy = 9.7E-12, # of iterations =  46

     total cpu time spent up to now is     8149.0 secs

     total energy              =   -3435.07888517 Ry
     estimated scf accuracy    <       0.00000017 Ry
     electrostatic embedding   =      -0.05165459 Ry
     cavitation energy         =       0.02094110 Ry
     PV energy                 =      -0.08025115 Ry
     correction to one-el term =     190.28132154 Ry

     iteration # 26     ecut=    50.00 Ry     beta= 0.70
     Davidson diagonalization with overlap
     ethr =  4.73E-11,  avg # of iterations =  2.0

     negative rho (up, down):  1.344E-04 0.000E+00

     add environment contribution to local potential
     Polarization accuracy = 2.5E-12, # of iterations =  46

     total cpu time spent up to now is     8440.8 secs

     total energy              =   -3435.07888527 Ry
     estimated scf accuracy    <       0.00000012 Ry
     electrostatic embedding   =      -0.05168662 Ry
     cavitation energy         =       0.02094082 Ry
     PV energy                 =      -0.08025192 Ry
     correction to one-el term =     190.27765742 Ry

     iteration # 27     ecut=    50.00 Ry     beta= 0.70
     Davidson diagonalization with overlap
     ethr =  3.15E-11,  avg # of iterations =  2.0

     negative rho (up, down):  1.393E-04 0.000E+00

     add environment contribution to local potential
     Polarization accuracy = 6.6E-12, # of iterations =  46

     total cpu time spent up to now is     8627.3 secs

     total energy              =   -3435.07888563 Ry
     estimated scf accuracy    <       0.00000008 Ry
     electrostatic embedding   =      -0.05168077 Ry
     cavitation energy         =       0.02094061 Ry
     PV energy                 =      -0.08025294 Ry
     correction to one-el term =     190.27826078 Ry

     iteration # 28     ecut=    50.00 Ry     beta= 0.70
     Davidson diagonalization with overlap
     ethr =  2.25E-11,  avg # of iterations =  2.0

     negative rho (up, down):  1.397E-04 0.000E+00

     add environment contribution to local potential
     Polarization accuracy = 3.1E-12, # of iterations =  46

     total cpu time spent up to now is     8951.6 secs

     total energy              =   -3435.07888587 Ry
     estimated scf accuracy    <       0.00000007 Ry
     electrostatic embedding   =      -0.05168653 Ry
     cavitation energy         =       0.02094056 Ry
     PV energy                 =      -0.08025329 Ry
     correction to one-el term =     190.27933854 Ry

     iteration # 29     ecut=    50.00 Ry     beta= 0.70
     Davidson diagonalization with overlap
     ethr =  1.96E-11,  avg # of iterations =  1.0

     negative rho (up, down):  1.430E-04 0.000E+00

     add environment contribution to local potential
     Polarization accuracy = 8.5E-12, # of iterations =  46

     total cpu time spent up to now is     9253.6 secs

     total energy              =   -3435.07888609 Ry
     estimated scf accuracy    <       0.00000007 Ry
     electrostatic embedding   =      -0.05168416 Ry
     cavitation energy         =       0.02094055 Ry
     PV energy                 =      -0.08025345 Ry
     correction to one-el term =     190.28018838 Ry

     iteration # 30     ecut=    50.00 Ry     beta= 0.70
     Davidson diagonalization with overlap
     ethr =  1.78E-11,  avg # of iterations =  1.0

     negative rho (up, down):  1.452E-04 0.000E+00

     add environment contribution to local potential
     Polarization accuracy = 9.9E-12, # of iterations =  45

     total cpu time spent up to now is     9470.1 secs

     total energy              =   -3435.07888671 Ry
     estimated scf accuracy    <       0.00000007 Ry
     electrostatic embedding   =      -0.05167824 Ry
     cavitation energy         =       0.02094049 Ry
     PV energy                 =      -0.08025367 Ry
     correction to one-el term =     190.28251187 Ry

     iteration # 31     ecut=    50.00 Ry     beta= 0.70
     Davidson diagonalization with overlap
     ethr =  1.78E-11,  avg # of iterations =  2.0

     negative rho (up, down):  1.529E-04 0.000E+00

     add environment contribution to local potential
     Polarization accuracy = 9.1E-12, # of iterations =  46

     total cpu time spent up to now is     9798.2 secs

     total energy              =   -3435.07888678 Ry
     estimated scf accuracy    <       0.00000006 Ry
     electrostatic embedding   =      -0.05167364 Ry
     cavitation energy         =       0.02094048 Ry
     PV energy                 =      -0.08025351 Ry
     correction to one-el term =     190.28300090 Ry

     iteration # 32     ecut=    50.00 Ry     beta= 0.70
     Davidson diagonalization with overlap
     ethr =  1.64E-11,  avg # of iterations =  2.0

     negative rho (up, down):  1.671E-04 0.000E+00

     add environment contribution to local potential
     Polarization accuracy = 8.7E-12, # of iterations =  46

     total cpu time spent up to now is    10076.3 secs

     total energy              =   -3435.07888779 Ry
     estimated scf accuracy    <       0.00000006 Ry
     electrostatic embedding   =      -0.05166615 Ry
     cavitation energy         =       0.02094047 Ry
     PV energy                 =      -0.08025339 Ry
     correction to one-el term =     190.28585443 Ry

     iteration # 33     ecut=    50.00 Ry     beta= 0.70
     Davidson diagonalization with overlap
     ethr =  1.58E-11,  avg # of iterations =  2.0

     negative rho (up, down):  1.766E-04 0.000E+00

     add environment contribution to local potential
     Polarization accuracy = 8.5E-12, # of iterations =  45

     total cpu time spent up to now is    10373.9 secs

     total energy              =   -3435.07889096 Ry
     estimated scf accuracy    <       0.00000004 Ry
     electrostatic embedding   =      -0.05164396 Ry
     cavitation energy         =       0.02094026 Ry
     PV energy                 =      -0.08025372 Ry
     correction to one-el term =     190.29093121 Ry

     iteration # 34     ecut=    50.00 Ry     beta= 0.70
     Davidson diagonalization with overlap
     ethr =  1.22E-11,  avg # of iterations =  4.0

     negative rho (up, down):  1.759E-04 0.000E+00

     add environment contribution to local potential
     Polarization accuracy = 9.0E-12, # of iterations =  45

     total cpu time spent up to now is    10691.1 secs

     total energy              =   -3435.07889490 Ry
     estimated scf accuracy    <       0.00000004 Ry
     electrostatic embedding   =      -0.05163759 Ry
     cavitation energy         =       0.02094011 Ry
     PV energy                 =      -0.08025375 Ry
     correction to one-el term =     190.29178604 Ry

     iteration # 35     ecut=    50.00 Ry     beta= 0.70
     Davidson diagonalization with overlap
     ethr =  1.04E-11,  avg # of iterations =  2.0

     negative rho (up, down):  1.699E-04 0.000E+00

     add environment contribution to local potential
     Polarization accuracy = 7.7E-12, # of iterations =  45

     total cpu time spent up to now is    10945.3 secs

     total energy              =   -3435.07889687 Ry
     estimated scf accuracy    <       0.00000004 Ry
     electrostatic embedding   =      -0.05163480 Ry
     cavitation energy         =       0.02094021 Ry
     PV energy                 =      -0.08025331 Ry
     correction to one-el term =     190.29091601 Ry

     iteration # 36     ecut=    50.00 Ry     beta= 0.70
     Davidson diagonalization with overlap
     ethr =  1.04E-11,  avg # of iterations =  2.5

     negative rho (up, down):  1.628E-04 0.000E+00

     add environment contribution to local potential
     Polarization accuracy = 7.3E-12, # of iterations =  45

     total cpu time spent up to now is    11120.3 secs

     total energy              =   -3435.07890080 Ry
     estimated scf accuracy    <       0.00000002 Ry
     electrostatic embedding   =      -0.05164592 Ry
     cavitation energy         =       0.02094022 Ry
     PV energy                 =      -0.08025355 Ry
     correction to one-el term =     190.28814871 Ry

     iteration # 37     ecut=    50.00 Ry     beta= 0.70
     Davidson diagonalization with overlap
     ethr =  5.51E-12,  avg # of iterations =  3.5

     negative rho (up, down):  1.514E-04 0.000E+00

     add environment contribution to local potential
     Polarization accuracy = 6.1E-12, # of iterations =  45

     total cpu time spent up to now is    11384.8 secs

     total energy              =   -3435.07890252 Ry
     estimated scf accuracy    <       0.00000002 Ry
     electrostatic embedding   =      -0.05165217 Ry
     cavitation energy         =       0.02094030 Ry
     PV energy                 =      -0.08025347 Ry
     correction to one-el term =     190.28636481 Ry

     iteration # 38     ecut=    50.00 Ry     beta= 0.70
     Davidson diagonalization with overlap
     ethr =  4.28E-12,  avg # of iterations =  4.0

     negative rho (up, down):  1.458E-04 0.000E+00

     add environment contribution to local potential
     Polarization accuracy = 4.6E-12, # of iterations =  46

     total cpu time spent up to now is    11666.9 secs

     total energy              =   -3435.07890718 Ry
     estimated scf accuracy    <          7.9E-09 Ry
     electrostatic embedding   =      -0.05166534 Ry
     cavitation energy         =       0.02094042 Ry
     PV energy                 =      -0.08025347 Ry
     correction to one-el term =     190.28352488 Ry

     iteration # 39     ecut=    50.00 Ry     beta= 0.70
     Davidson diagonalization with overlap
     ethr =  2.14E-12,  avg # of iterations =  3.5

     negative rho (up, down):  1.438E-04 0.000E+00

     add environment contribution to local potential
     Polarization accuracy = 4.6E-12, # of iterations =  45

     total cpu time spent up to now is    11950.4 secs

     total energy              =   -3435.07890879 Ry
     estimated scf accuracy    <          3.7E-09 Ry
     electrostatic embedding   =      -0.05167206 Ry
     cavitation energy         =       0.02094049 Ry
     PV energy                 =      -0.08025342 Ry
     correction to one-el term =     190.28241414 Ry

     iteration # 40     ecut=    50.00 Ry     beta= 0.70
     Davidson diagonalization with overlap
     ethr =  1.01E-12,  avg # of iterations =  2.0

     negative rho (up, down):  1.441E-04 0.000E+00

     add environment contribution to local potential
     Polarization accuracy = 3.5E-12, # of iterations =  45

     total cpu time spent up to now is    12269.0 secs

     total energy              =   -3435.07890941 Ry
     estimated scf accuracy    <          1.7E-09 Ry
     electrostatic embedding   =      -0.05167502 Ry
     cavitation energy         =       0.02094052 Ry
     PV energy                 =      -0.08025340 Ry
     correction to one-el term =     190.28215357 Ry

     iteration # 41     ecut=    50.00 Ry     beta= 0.70
     Davidson diagonalization with overlap
     ethr =  4.57E-13,  avg # of iterations =  2.0

     negative rho (up, down):  1.493E-04 0.000E+00

     the potential shift due to the Gaussian-smeared nuclei is    -1.3426 ev

     total cpu time spent up to now is    12515.7 secs

     End of self-consistent calculation

          k = 0.2500 0.2752 0.0000 ( 34780 PWs)   bands (ev):

   -78.0167 -78.0033 -77.4825 -77.4698 -77.3715 -77.3587 -77.2892 -77.2804
   -77.2673 -77.2539 -77.1305 -77.0331 -48.5561 -48.5427 -48.0354 -48.0226
   -47.8964 -47.8831 -47.8503 -47.8373 -47.7788 -47.6571 -47.6388 -47.6253
   -47.5111 -47.4981 -47.3432 -47.3239 -47.3121 -47.2664 -47.2645 -47.2534
   -47.2519 -47.2289 -47.2165 -47.1923 -47.1765 -47.1454 -47.1331 -47.1244
   -47.1139 -47.0925 -47.0796 -47.0752 -47.0592 -47.0257 -46.9986 -46.8711
   -24.0552 -23.9890 -23.7287 -23.6275 -23.6123 -23.5321 -23.5101 -23.4217
   -23.4011 -23.2948 -22.8954 -22.7693 -22.7363 -22.7166 -22.6692 -22.6677
   -22.5870 -22.5508 -22.5400 -22.5021 -22.4303 -22.3948 -22.3819 -22.3191
   -22.3032 -22.0540 -21.7290 -21.6511 -12.2675 -12.1646 -12.0549 -11.9759
   -11.9030 -11.7032 -11.6705 -11.4828 -11.4457 -11.3756 -11.2708 -11.0898
   -11.0795 -11.0154 -10.9963 -10.9785 -10.9288 -10.7789 -10.7200 -10.6376
   -10.5642 -10.4886 -10.4314 -10.3621 -10.2947 -10.2093 -10.0806 -10.0084
    -9.8181  -9.7886  -9.6803  -9.5499  -9.4710  -9.3250  -9.3096  -9.2955
    -9.1964  -9.1595  -9.1407  -9.0066  -8.9164  -8.9016  -8.8209  -8.7111
    -8.6923  -8.5913  -8.5714  -8.3612  -8.3006  -8.2300  -8.1825  -8.1374
    -8.1295  -8.0616  -8.0506  -8.0167  -7.9175  -7.8270  -7.8012  -7.7309
    -7.6787  -7.6331  -7.5419  -7.4486  -7.4147  -7.3348  -7.2961  -7.0383
    -7.0211  -6.9214  -6.9048  -6.7859  -6.7621  -6.6665  -6.5895  -6.5752
    -6.5311  -6.4273  -6.3559  -6.2715  -6.2347  -6.0980  -6.0862  -6.0452
    -4.9515  -4.9203  -4.7401  -4.7362  -4.6693  -4.6565  -4.6336  -4.5974
    -4.5929  -4.5449  -4.5352  -4.5101  -4.4716  -4.3949  -4.3599  -4.3206
    -4.2179  -4.1835  -4.1514  -4.1016  -4.0543  -4.0477  -3.7730  -3.7680
    -3.5939  -3.5891  -3.5130  -3.4025  -3.0916  -3.0791  -3.0447  -2.8944
    -2.7903  -2.7689  -2.6081  -2.4635  -1.9982  -1.9192  -1.8860  -1.8057
    -1.5881  -1.4606  -0.9831  -0.6577  -0.5901  -0.3438  -0.2228  -0.1413
    -0.0901  -0.0096   0.0992   0.1796   0.3998   0.5944   0.6299   1.0259
     1.1402   1.1850   1.2488   1.2649

          k =-0.2500 0.2752 0.0000 ( 34780 PWs)   bands (ev):

   -78.0167 -78.0033 -77.4825 -77.4698 -77.3715 -77.3587 -77.2892 -77.2804
   -77.2673 -77.2539 -77.1305 -77.0331 -48.5561 -48.5427 -48.0354 -48.0226
   -47.8965 -47.8832 -47.8501 -47.8372 -47.7788 -47.6571 -47.6388 -47.6254
   -47.5111 -47.4981 -47.3432 -47.3240 -47.3124 -47.2671 -47.2629 -47.2543
   -47.2500 -47.2296 -47.2173 -47.1924 -47.1765 -47.1454 -47.1331 -47.1245
   -47.1139 -47.0923 -47.0795 -47.0752 -47.0592 -47.0255 -46.9988 -46.8712
   -24.0567 -23.9908 -23.7289 -23.6256 -23.6103 -23.5317 -23.5084 -23.4212
   -23.4012 -23.2929 -22.9013 -22.7630 -22.7391 -22.7176 -22.6748 -22.6716
   -22.5883 -22.5407 -22.5282 -22.5125 -22.4328 -22.3975 -22.3839 -22.3174
   -22.3003 -22.0525 -21.7291 -21.6518 -12.2616 -12.1544 -12.0492 -11.9782
   -11.9025 -11.7081 -11.6750 -11.4966 -11.4652 -11.3688 -11.2813 -11.1097
   -11.0947 -11.0347 -10.9853 -10.9411 -10.9000 -10.7920 -10.7200 -10.6743
   -10.5201 -10.4724 -10.4381 -10.3664 -10.3043 -10.1918 -10.0582 -10.0072
    -9.8591  -9.7777  -9.6246  -9.5328  -9.4972  -9.3884  -9.3005  -9.2666
    -9.2047  -9.1779  -9.0981  -9.0510  -8.9038  -8.9024  -8.8238  -8.7314
    -8.6677  -8.5815  -8.5169  -8.4431  -8.3314  -8.2204  -8.1764  -8.1346
    -8.1207  -8.0513  -8.0152  -8.0009  -7.9435  -7.8186  -7.7966  -7.7803
    -7.6342  -7.6226  -7.5733  -7.4895  -7.4180  -7.2966  -7.2512  -7.0813
    -7.0579  -6.9228  -6.8874  -6.7792  -6.7711  -6.7037  -6.5681  -6.5320
    -6.5149  -6.4203  -6.3690  -6.2584  -6.2502  -6.1555  -6.0601  -6.0299
    -4.9617  -4.9093  -4.7401  -4.7336  -4.7045  -4.6534  -4.6305  -4.6208
    -4.5909  -4.5643  -4.5073  -4.4738  -4.4639  -4.4132  -4.3334  -4.2953
    -4.2187  -4.2111  -4.1248  -4.1212  -4.0698  -4.0323  -3.7985  -3.7414
    -3.6226  -3.5940  -3.4849  -3.4051  -3.1011  -3.0922  -3.0345  -2.8834
    -2.7953  -2.7771  -2.5967  -2.4751  -1.9980  -1.9022  -1.8795  -1.8143
    -1.5886  -1.4589  -0.9863  -0.6587  -0.5954  -0.3434  -0.2098  -0.1485
    -0.1057  -0.0034   0.1011   0.1762   0.4040   0.5950   0.6322   1.0270
     1.1361   1.1913   1.2306   1.2695

     the Fermi energy is    -3.8407 ev

!    total energy              =   -3435.07890940 Ry
     estimated scf accuracy    <          8.7E-10 Ry
     smearing contrib. (-TS)   =       0.07036058 Ry
     internal energy E=F+TS    =   -3435.14926998 Ry

     The total energy is F=E-TS. E is the sum of the following terms:
     one-electron contribution =  -25702.48492960 Ry
     hartree contribution      =   12835.85658515 Ry
     xc contribution           =    -448.46049053 Ry
     ewald contribution        =    9956.27376711 Ry
     one-center paw contrib.   =    -266.50596480 Ry
     electrostatic embedding   =      -0.05167601 Ry
     cavitation energy         =       0.02094052 Ry
     PV energy                 =      -0.08025338 Ry
     correction to one-el term =     190.28275156 Ry

     WARNING: you are using the parabolic pbc correction;
              the potential shift above must be added to 
              band and Fermi energies.

     convergence has been achieved in  41 iterations

     negative rho (up, down):  1.493E-04 0.000E+00

     Forces acting on atoms (cartesian axes, Ry/au):

     atom    1 type  1   force =     0.03316895    0.00754016   -0.02152677
     atom    2 type  1   force =    -0.00186947    0.00050502   -0.01169446
     atom    3 type  1   force =     0.00016069   -0.13726621    0.08398474
     atom    4 type  1   force =    -0.00027578    0.00573518    0.01966337
     atom    5 type  2   force =     0.00535123    0.00556193   -0.01106115
     atom    6 type  2   force =    -0.00451898   -0.00050959   -0.00747536
     atom    7 type  1   force =    -0.00220616    0.07896311    0.00378741
     atom    8 type  1   force =     0.00269199    0.05959956    0.00313326
     atom    9 type  2   force =    -0.00006221   -0.00043476    0.00104571
     atom   10 type  2   force =     0.00119901    0.00899093    0.00629812
     atom   11 type  1   force =    -0.00030173   -0.08158890   -0.00222170
     atom   12 type  1   force =     0.00040864   -0.05779054   -0.00382092
     atom   13 type  1   force =    -0.00144958   -0.00100492    0.01009078
     atom   14 type  1   force =     0.00119623   -0.00155398   -0.00123608
     atom   15 type  1   force =    -0.00183165   -0.00079690   -0.00281389
     atom   16 type  1   force =     0.00071123   -0.00011572    0.01415915
     atom   17 type  2   force =     0.02541813    0.00498183    0.00000000
     atom   18 type  2   force =    -0.02344145   -0.00124776    0.00000000
     atom   19 type  1   force =    -0.00841488   -0.03636487    0.00000000
     atom   20 type  1   force =     0.00500334   -0.10244470    0.00000000
     atom   21 type  2   force =    -0.01203751   -0.00558568    0.00000000
     atom   22 type  2   force =     0.01870184   -0.00467932    0.00000000
     atom   23 type  1   force =    -0.00630012    0.04227200    0.00000000
     atom   24 type  1   force =     0.00282904    0.10727940    0.00000000
     atom   25 type  1   force =    -0.00183165   -0.00079690    0.00281389
     atom   26 type  1   force =     0.00071123   -0.00011572   -0.01415915
     atom   27 type  1   force =    -0.00144958   -0.00100492   -0.01009078
     atom   28 type  1   force =     0.00119623   -0.00155398    0.00123608
     atom   29 type  2   force =     0.00535123    0.00556193    0.01106115
     atom   30 type  2   force =    -0.00451898   -0.00050959    0.00747536
     atom   31 type  1   force =    -0.00220616    0.07896311   -0.00378741
     atom   32 type  1   force =     0.00269199    0.05959956   -0.00313326
     atom   33 type  2   force =    -0.00006221   -0.00043476   -0.00104571
     atom   34 type  2   force =     0.00119901    0.00899093   -0.00629812
     atom   35 type  1   force =    -0.00030173   -0.08158890    0.00222170
     atom   36 type  1   force =     0.00040864   -0.05779054    0.00382092
     atom   37 type  1   force =     0.00016069   -0.13726621   -0.08398474
     atom   38 type  1   force =    -0.00027578    0.00573518   -0.01966337
     atom   39 type  1   force =     0.03316895    0.00754016    0.02152677
     atom   40 type  1   force =    -0.00186947    0.00050502    0.01169446
     atom   41 type  3   force =    -0.03290569   -0.00409847    0.00973473
     atom   42 type  3   force =    -0.03290569   -0.00409847   -0.00973473
     atom   43 type  3   force =    -0.00028388    0.11892378   -0.07722593
     atom   44 type  3   force =    -0.00028388    0.11892378    0.07722593
     atom   45 type  3   force =    -0.00006204   -0.00276513   -0.01155190
     atom   46 type  3   force =    -0.00006204   -0.00276513    0.01155190
     The non-local contrib.  to forces
     atom    1 type  1   force =     1.70614936    0.25419767    0.42409073
     atom    2 type  1   force =     0.03483700   -0.00473685    1.20836241
     atom    3 type  1   force =     0.01135344    1.39838485    0.00749126
     atom    4 type  1   force =    -0.02700962   -0.55078779   -0.87524158
     atom    5 type  2   force =    -0.01172789   -0.00097284    0.04166297
     atom    6 type  2   force =     0.00960192    0.00066637    0.04086347
     atom    7 type  1   force =     0.04965533   -0.05950315   -0.12013306
     atom    8 type  1   force =    -0.12781695   -0.04549316   -0.05168675
     atom    9 type  2   force =     0.00635526    0.00074208    0.03841985
     atom   10 type  2   force =    -0.01105474    0.01007390   -0.04102113
     atom   11 type  1   force =    -0.04754441    0.05634619    0.00308573
     atom   12 type  1   force =    -0.01951750    0.02456050    0.04907658
     atom   13 type  1   force =    -0.01771492   -0.02096505   -0.01382085
     atom   14 type  1   force =     0.01404361    0.06243117    0.00789181
     atom   15 type  1   force =    -0.01389935   -0.03040848   -0.07322344
     atom   16 type  1   force =    -0.00781280    0.00023838    0.20112733
     atom   17 type  2   force =    -0.01045449    0.00148941    0.00000000
     atom   18 type  2   force =     0.00258241   -0.00310082    0.00000000
     atom   19 type  1   force =     0.05861672    0.10984928    0.00000000
     atom   20 type  1   force =    -0.04632448    0.01420268    0.00000000
     atom   21 type  2   force =     0.01422215   -0.00036420    0.00000000
     atom   22 type  2   force =    -0.01549179   -0.00041321    0.00000000
     atom   23 type  1   force =     0.02470030   -0.12327459    0.00000000
     atom   24 type  1   force =    -0.01362798   -0.02251602    0.00000000
     atom   25 type  1   force =    -0.01389935   -0.03040848    0.07322344
     atom   26 type  1   force =    -0.00781280    0.00023838   -0.20112733
     atom   27 type  1   force =    -0.01771492   -0.02096505    0.01382085
     atom   28 type  1   force =     0.01404361    0.06243117   -0.00789181
     atom   29 type  2   force =    -0.01172789   -0.00097284   -0.04166297
     atom   30 type  2   force =     0.00960192    0.00066637   -0.04086347
     atom   31 type  1   force =     0.04965533   -0.05950315    0.12013306
     atom   32 type  1   force =    -0.12781695   -0.04549316    0.05168675
     atom   33 type  2   force =     0.00635526    0.00074208   -0.03841985
     atom   34 type  2   force =    -0.01105474    0.01007390    0.04102113
     atom   35 type  1   force =    -0.04754441    0.05634619   -0.00308573
     atom   36 type  1   force =    -0.01951750    0.02456050   -0.04907658
     atom   37 type  1   force =     0.01135344    1.39838485   -0.00749126
     atom   38 type  1   force =    -0.02700962   -0.55078779    0.87524158
     atom   39 type  1   force =     1.70614936    0.25419767   -0.42409073
     atom   40 type  1   force =     0.03483700   -0.00473685   -1.20836241
     atom   41 type  3   force =    -0.09009621   -0.01363984    0.03306421
     atom   42 type  3   force =    -0.09009621   -0.01363984   -0.03306421
     atom   43 type  3   force =    -0.00006455   -0.11017464    0.07393051
     atom   44 type  3   force =    -0.00006455   -0.11017464   -0.07393051
     atom   45 type  3   force =     0.00103841    0.03044721    0.11048014
     atom   46 type  3   force =     0.00103841    0.03044721   -0.11048014
     The ionic contribution  to forces
     atom    1 type  1   force =    -3.25046070    0.10179396  -96.73746978
     atom    2 type  1   force =     0.04931522    0.28320818 -101.50256646
     atom    3 type  1   force =    -0.23734438   -3.82419330  -92.62909459
     atom    4 type  1   force =     0.25217930    0.65259220  -91.24284489
     atom    5 type  2   force =     0.30154427   -1.02536283 -170.67730295
     atom    6 type  2   force =    -0.31201198   -1.20756959 -171.98075943
     atom    7 type  1   force =     0.53454013    1.66757351  -61.25186934
     atom    8 type  1   force =    -0.09377199    1.21370111  -63.57716317
     atom    9 type  2   force =    -0.97162248    1.39303497 -169.27205910
     atom   10 type  2   force =     0.84159113    1.09058001 -175.65967805
     atom   11 type  1   force =     0.81057106   -1.48117681  -64.94458752
     atom   12 type  1   force =    -0.37463654   -0.85479323  -66.32810223
     atom   13 type  1   force =     0.07117634   -0.15676456  -38.31093606
     atom   14 type  1   force =    -0.05562716   -0.48970087  -38.46557932
     atom   15 type  1   force =    -0.06481965    0.07897543  -24.80125142
     atom   16 type  1   force =     0.14983671    0.26091639  -27.76422071
     atom   17 type  2   force =     0.42204187    0.42144955   -0.00044869
     atom   18 type  2   force =    -0.38374245    0.26752465   -0.00045768
     atom   19 type  1   force =    -0.35261757   -0.31085126   -0.00008538
     atom   20 type  1   force =     0.26500125   -0.95332649   -0.00008216
     atom   21 type  2   force =     0.89778147   -0.18797966   -0.00025770
     atom   22 type  2   force =    -1.11826279   -0.19885043   -0.00024698
     atom   23 type  1   force =    -0.13781147    0.43878263   -0.00008404
     atom   24 type  1   force =     0.03763493    1.05280689   -0.00008145
     atom   25 type  1   force =    -0.06481916    0.07897381   24.80102443
     atom   26 type  1   force =     0.14984394    0.26091721   27.76407647
     atom   27 type  1   force =     0.07117993   -0.15676333   38.31122858
     atom   28 type  1   force =    -0.05563009   -0.48970955   38.46588562
     atom   29 type  2   force =     0.30155468   -1.02535689  170.67757574
     atom   30 type  2   force =    -0.31202165   -1.20756346  171.98103227
     atom   31 type  1   force =     0.53454222    1.66754129   61.25193470
     atom   32 type  1   force =    -0.09377274    1.21367313   63.57723237
     atom   33 type  2   force =    -0.97163487    1.39303801  169.27218646
     atom   34 type  2   force =     0.84159674    1.09057664  175.65982998
     atom   35 type  1   force =     0.81057091   -1.48114522   64.94465050
     atom   36 type  1   force =    -0.37463541   -0.85476662   66.32816990
     atom   37 type  1   force =    -0.23734698   -3.82447758   92.62917936
     atom   38 type  1   force =     0.25218460    0.65272055   91.24265157
     atom   39 type  1   force =    -3.25052599    0.10179145   96.73758703
     atom   40 type  1   force =     0.04931819    0.28320799  101.50263508
     atom   41 type  3   force =     2.59108216    0.51316817  -16.43512512
     atom   42 type  3   force =     2.59114813    0.51317797   16.43512917
     atom   43 type  3   force =    -0.07285113    2.35415110  -17.53679320
     atom   44 type  3   force =    -0.07285009    2.35441553   17.53680158
     atom   45 type  3   force =     0.01629331   -0.83490592  -18.45907286
     atom   46 type  3   force =     0.01628880   -0.83503474   18.45940948
     The local contribution  to forces
     atom    1 type  1   force =     1.51460741   -0.30571582   96.25051286
     atom    2 type  1   force =    -0.02835196   -0.30115202  100.24543754
     atom    3 type  1   force =     0.20807284    2.27068151   92.69578439
     atom    4 type  1   force =    -0.21048248   -0.07853519   92.22639310
     atom    5 type  2   force =    -0.31803801    1.02871997  170.66676799
     atom    6 type  2   force =     0.33271586    1.20179833  171.94484319
     atom    7 type  1   force =    -0.59056492   -1.51980278   61.38017807
     atom    8 type  1   force =     0.22812705   -1.09470297   63.61791784
     atom    9 type  2   force =     0.93510927   -1.38090461  169.19052887
     atom   10 type  2   force =    -0.79573434   -1.09876220  175.68537020
     atom   11 type  1   force =    -0.77627964    1.33416785   64.94281074
     atom   12 type  1   force =     0.40709519    0.75885287   66.25634315
     atom   13 type  1   force =    -0.05760189    0.17527239   38.33319491
     atom   14 type  1   force =     0.04545101    0.42666228   38.46261029
     atom   15 type  1   force =     0.07500521   -0.04933773   24.86791982
     atom   16 type  1   force =    -0.13957345   -0.26132136   27.57905834
     atom   17 type  2   force =    -0.38832164   -0.41844798   -0.00582627
     atom   18 type  2   force =     0.35998727   -0.26564141   -0.00583114
     atom   19 type  1   force =     0.28522695    0.16552914   -0.00244951
     atom   20 type  1   force =    -0.21315297    0.83605909   -0.00247877
     atom   21 type  2   force =    -0.92631210    0.18294613   -0.00605719
     atom   22 type  2   force =     1.15492596    0.19481569   -0.00611005
     atom   23 type  1   force =     0.10594839   -0.27427659   -0.00245593
     atom   24 type  1   force =    -0.02020585   -0.92249280   -0.00248257
     atom   25 type  1   force =     0.07500728   -0.04934029  -24.86968922
     atom   26 type  1   force =    -0.13956242   -0.26133504  -27.58081605
     atom   27 type  1   force =    -0.05760276    0.17527621  -38.33498648
     atom   28 type  1   force =     0.04545227    0.42665880  -38.46437927
     atom   29 type  2   force =    -0.31802609    1.02872094 -170.67289723
     atom   30 type  2   force =     0.33270517    1.20180702 -171.95095126
     atom   31 type  1   force =    -0.59055235   -1.51978359  -61.38263555
     atom   32 type  1   force =     0.22811120   -1.09468357  -63.62039328
     atom   33 type  2   force =     0.93512524   -1.38095993 -169.19637451
     atom   34 type  2   force =    -0.79577594   -1.09875327 -175.69107672
     atom   35 type  1   force =    -0.77625082    1.33413713  -64.94528484
     atom   36 type  1   force =     0.40706542    0.75882751  -66.25882268
     atom   37 type  1   force =     0.20807700    2.27083442  -92.69960113
     atom   38 type  1   force =    -0.21048627   -0.07859235  -92.23011438
     atom   39 type  1   force =     1.51463789   -0.30574535  -96.25209118
     atom   40 type  1   force =    -0.02840488   -0.30114212 -100.24683226
     atom   41 type  3   force =    -2.54661920   -0.50051915   16.41720953
     atom   42 type  3   force =    -2.54661920   -0.50051915  -16.41720953
     atom   43 type  3   force =     0.06736370   -2.12451785   17.38929100
     atom   44 type  3   force =     0.06736370   -2.12451785  -17.38929100
     atom   45 type  3   force =    -0.01371070    0.80812867   18.38789695
     atom   46 type  3   force =    -0.01371070    0.80812867  -18.38789695
     The core correction contribution to forces
     atom    1 type  1   force =    -0.01750244   -0.00269893   -0.00439104
     atom    2 type  1   force =    -0.00010448    0.00002226   -0.00998467
     atom    3 type  1   force =    -0.00012479   -0.01225852   -0.00167353
     atom    4 type  1   force =     0.00028571    0.00550050    0.00819447
     atom    5 type  2   force =     0.00000000    0.00000000    0.00000000
     atom    6 type  2   force =     0.00000000    0.00000000    0.00000000
     atom    7 type  1   force =    -0.00077482   -0.00110307    0.00115920
     atom    8 type  1   force =     0.00153555   -0.00088407    0.00055873
     atom    9 type  2   force =     0.00000000    0.00000000    0.00000000
     atom   10 type  2   force =     0.00000000    0.00000000    0.00000000
     atom   11 type  1   force =     0.00021924    0.00123690    0.00004929
     atom   12 type  1   force =     0.00045432    0.00112200   -0.00041397
     atom   13 type  1   force =     0.00015381    0.00027274    0.00012714
     atom   14 type  1   force =    -0.00012196   -0.00069876    0.00008294
     atom   15 type  1   force =     0.00021033    0.00039387    0.00040244
     atom   16 type  1   force =     0.00006066   -0.00009494   -0.00299419
     atom   17 type  2   force =     0.00000000    0.00000000    0.00000000
     atom   18 type  2   force =     0.00000000    0.00000000    0.00000000
     atom   19 type  1   force =    -0.00055270   -0.00021429   -0.00000210
     atom   20 type  1   force =     0.00041132    0.00141446   -0.00000224
     atom   21 type  2   force =     0.00000000    0.00000000    0.00000000
     atom   22 type  2   force =     0.00000000    0.00000000    0.00000000
     atom   23 type  1   force =    -0.00021777    0.00030701   -0.00000206
     atom   24 type  1   force =     0.00011151   -0.00137020   -0.00000222
     atom   25 type  1   force =     0.00021027    0.00039405   -0.00040462
     atom   26 type  1   force =     0.00006073   -0.00009503    0.00299210
     atom   27 type  1   force =     0.00015380    0.00027273   -0.00012929
     atom   28 type  1   force =    -0.00012195   -0.00069890   -0.00008509
     atom   29 type  2   force =     0.00000000    0.00000000    0.00000000
     atom   30 type  2   force =     0.00000000    0.00000000    0.00000000
     atom   31 type  1   force =    -0.00077482   -0.00110306   -0.00116112
     atom   32 type  1   force =     0.00153553   -0.00088395   -0.00056066
     atom   33 type  2   force =     0.00000000    0.00000000    0.00000000
     atom   34 type  2   force =     0.00000000    0.00000000    0.00000000
     atom   35 type  1   force =     0.00021933    0.00123682   -0.00005142
     atom   36 type  1   force =     0.00045423    0.00112185    0.00041196
     atom   37 type  1   force =    -0.00012471   -0.01226029    0.00166981
     atom   38 type  1   force =     0.00028568    0.00550149   -0.00820012
     atom   39 type  1   force =    -0.01750326   -0.00269904    0.00438873
     atom   40 type  1   force =    -0.00010474    0.00002238    0.00998292
     atom   41 type  3   force =     0.00000000    0.00000000    0.00000000
     atom   42 type  3   force =     0.00000000    0.00000000    0.00000000
     atom   43 type  3   force =     0.00000000    0.00000000    0.00000000
     atom   44 type  3   force =     0.00000000    0.00000000    0.00000000
     atom   45 type  3   force =     0.00000000    0.00000000    0.00000000
     atom   46 type  3   force =     0.00000000    0.00000000    0.00000000
     The Hubbard contrib.    to forces
     atom    1 type  1   force =     0.00000000    0.00000000    0.00000000
     atom    2 type  1   force =     0.00000000    0.00000000    0.00000000
     atom    3 type  1   force =     0.00000000    0.00000000    0.00000000
     atom    4 type  1   force =     0.00000000    0.00000000    0.00000000
     atom    5 type  2   force =     0.00000000    0.00000000    0.00000000
     atom    6 type  2   force =     0.00000000    0.00000000    0.00000000
     atom    7 type  1   force =     0.00000000    0.00000000    0.00000000
     atom    8 type  1   force =     0.00000000    0.00000000    0.00000000
     atom    9 type  2   force =     0.00000000    0.00000000    0.00000000
     atom   10 type  2   force =     0.00000000    0.00000000    0.00000000
     atom   11 type  1   force =     0.00000000    0.00000000    0.00000000
     atom   12 type  1   force =     0.00000000    0.00000000    0.00000000
     atom   13 type  1   force =     0.00000000    0.00000000    0.00000000
     atom   14 type  1   force =     0.00000000    0.00000000    0.00000000
     atom   15 type  1   force =     0.00000000    0.00000000    0.00000000
     atom   16 type  1   force =     0.00000000    0.00000000    0.00000000
     atom   17 type  2   force =     0.00000000    0.00000000    0.00000000
     atom   18 type  2   force =     0.00000000    0.00000000    0.00000000
     atom   19 type  1   force =     0.00000000    0.00000000    0.00000000
     atom   20 type  1   force =     0.00000000    0.00000000    0.00000000
     atom   21 type  2   force =     0.00000000    0.00000000    0.00000000
     atom   22 type  2   force =     0.00000000    0.00000000    0.00000000
     atom   23 type  1   force =     0.00000000    0.00000000    0.00000000
     atom   24 type  1   force =     0.00000000    0.00000000    0.00000000
     atom   25 type  1   force =     0.00000000    0.00000000    0.00000000
     atom   26 type  1   force =     0.00000000    0.00000000    0.00000000
     atom   27 type  1   force =     0.00000000    0.00000000    0.00000000
     atom   28 type  1   force =     0.00000000    0.00000000    0.00000000
     atom   29 type  2   force =     0.00000000    0.00000000    0.00000000
     atom   30 type  2   force =     0.00000000    0.00000000    0.00000000
     atom   31 type  1   force =     0.00000000    0.00000000    0.00000000
     atom   32 type  1   force =     0.00000000    0.00000000    0.00000000
     atom   33 type  2   force =     0.00000000    0.00000000    0.00000000
     atom   34 type  2   force =     0.00000000    0.00000000    0.00000000
     atom   35 type  1   force =     0.00000000    0.00000000    0.00000000
     atom   36 type  1   force =     0.00000000    0.00000000    0.00000000
     atom   37 type  1   force =     0.00000000    0.00000000    0.00000000
     atom   38 type  1   force =     0.00000000    0.00000000    0.00000000
     atom   39 type  1   force =     0.00000000    0.00000000    0.00000000
     atom   40 type  1   force =     0.00000000    0.00000000    0.00000000
     atom   41 type  3   force =     0.00000000    0.00000000    0.00000000
     atom   42 type  3   force =     0.00000000    0.00000000    0.00000000
     atom   43 type  3   force =     0.00000000    0.00000000    0.00000000
     atom   44 type  3   force =     0.00000000    0.00000000    0.00000000
     atom   45 type  3   force =     0.00000000    0.00000000    0.00000000
     atom   46 type  3   force =     0.00000000    0.00000000    0.00000000
     The SCF correction term to forces
     atom    1 type  1   force =    -0.00000440    0.00000156   -0.00001581
     atom    2 type  1   force =     0.00000070   -0.00000093   -0.00001529
     atom    3 type  1   force =     0.00000229   -0.00000214   -0.00001498
     atom    4 type  1   force =    -0.00000249    0.00000169   -0.00000778
     atom    5 type  2   force =     0.00000699   -0.00000025   -0.00003448
     atom    6 type  2   force =    -0.00000760   -0.00000040   -0.00004201
     atom    7 type  1   force =     0.00000240   -0.00000202   -0.00001443
     atom    8 type  1   force =    -0.00000250    0.00000494   -0.00001668
     atom    9 type  2   force =     0.00000168    0.00000161   -0.00004748
     atom   10 type  2   force =    -0.00000252   -0.00000090   -0.00004730
     atom   11 type  1   force =     0.00000190    0.00000214   -0.00001450
     atom   12 type  1   force =    -0.00000136   -0.00000486   -0.00001669
     atom   13 type  1   force =     0.00000576   -0.00000010   -0.00002189
     atom   14 type  1   force =    -0.00000569    0.00000024   -0.00000565
     atom   15 type  1   force =     0.00000477    0.00000000   -0.00001314
     atom   16 type  1   force =    -0.00000434   -0.00000007   -0.00001285
     atom   17 type  2   force =     0.00000634   -0.00000011    0.00001842
     atom   18 type  2   force =    -0.00000821    0.00000004    0.00001850
     atom   19 type  1   force =     0.00001599   -0.00000263    0.00000678
     atom   20 type  1   force =    -0.00001586   -0.00000731    0.00000681
     atom   21 type  2   force =     0.00001123   -0.00000028    0.00001818
     atom   22 type  2   force =    -0.00001253    0.00000011    0.00001823
     atom   23 type  1   force =     0.00001614    0.00000253    0.00000680
     atom   24 type  1   force =    -0.00001573    0.00000713    0.00000683
     atom   25 type  1   force =     0.00000475    0.00000002    0.00002464
     atom   26 type  1   force =    -0.00000431   -0.00000005    0.00002383
     atom   27 type  1   force =     0.00000569   -0.00000014    0.00003009
     atom   28 type  1   force =    -0.00000562    0.00000022    0.00001397
     atom   29 type  2   force =     0.00000711   -0.00000035    0.00003996
     atom   30 type  2   force =    -0.00000772   -0.00000051    0.00004731
     atom   31 type  1   force =     0.00000240   -0.00000221    0.00001681
     atom   32 type  1   force =    -0.00000252    0.00000474    0.00001874
     atom   33 type  2   force =     0.00000154    0.00000172    0.00005282
     atom   34 type  2   force =    -0.00000236   -0.00000082    0.00005068
     atom   35 type  1   force =     0.00000188    0.00000235    0.00001638
     atom   36 type  1   force =    -0.00000137   -0.00000463    0.00001841
     atom   37 type  1   force =     0.00000222   -0.00000215    0.00001224
     atom   38 type  1   force =    -0.00000242    0.00000165    0.00000515
     atom   39 type  1   force =    -0.00000440    0.00000157    0.00001216
     atom   40 type  1   force =     0.00000074   -0.00000091    0.00001163
     atom   41 type  3   force =    -0.00000056    0.00000000   -0.00000207
     atom   42 type  3   force =    -0.00000058    0.00000000    0.00000143
     atom   43 type  3   force =     0.00000012    0.00000038   -0.00000246
     atom   44 type  3   force =     0.00000012    0.00000035    0.00000189
     atom   45 type  3   force =    -0.00000009   -0.00000008   -0.00000191
     atom   46 type  3   force =    -0.00000008   -0.00000007    0.00000125

     Total force =     0.408843     Total SCF correction =     0.000164

     BFGS Geometry Optimization
     Energy error            =      0.0E+00 Ry
     Gradient error          =      1.4E-01 Ry/Bohr

     number of scf cycles    =   1
     number of bfgs steps    =   0

     energy             new  =   -3435.0789094047 Ry

     new trust radius        =       0.1609207055 bohr
     new conv_thr            =       0.0000000010 Ry


ATOMIC_POSITIONS (crystal)
O             0.0122486368        0.4579252668        0.2703875712
O             0.4786671761        0.4968693011        0.2728980823
O            -0.0006245106        0.0013496072        0.3024077790
O             0.4974740404       -0.0026698504        0.3038415330
Ru            0.2488535654       -0.0032785408        0.3586651484
Ru            0.7481431526       -0.0037770162        0.3581756501
O             0.2492365946        0.3056435129        0.3609445460
O             0.7497643521        0.3071134020        0.3581171056
Ru            0.0006069355        0.4966483512        0.3584025863
Ru            0.5020620177        0.4942131278        0.3510109490
O             0.2403408853        0.6880526960        0.3564085587
O             0.7568643956        0.6854106707        0.3549403330
O            -0.0036747974       -0.0023138115        0.4113840884
O             0.5005111233       -0.0088076772        0.4120752599
O            -0.0001153060        0.5001457630        0.4462316435
O             0.4968726398        0.5016739906        0.4408768564
Ru           -0.0033540132       -0.0007688810        0.5000010000
Ru            0.4996308992       -0.0000638343        0.5000010000
O             0.2494524222        0.1866631757        0.5000010000
O             0.7463453298        0.1885855775        0.5000010000
Ru            0.2547377976        0.5001602218        0.5000010000
Ru            0.7450624541        0.4997002387        0.5000010000
O             0.2478409757        0.8136098800        0.5000010000
O             0.7482374012        0.8110975911        0.5000010000
O            -0.0001153060        0.5001457630        0.5537693565
O             0.4968726398        0.5016739906        0.5591241436
O            -0.0036747974       -0.0023138115        0.5886169116
O             0.5005111233       -0.0088076772        0.5879257401
Ru            0.2488535654       -0.0032785408        0.6413358516
Ru            0.7481431526       -0.0037770162        0.6418253499
O             0.2492365946        0.3056435129        0.6390564540
O             0.7497643521        0.3071134020        0.6418838944
Ru            0.0006069355        0.4966483512        0.6415984137
Ru            0.5020620177        0.4942131278        0.6489900510
O             0.2403408853        0.6880526960        0.6435924413
O             0.7568643956        0.6854106707        0.6450606670
O            -0.0006245106        0.0013496072        0.6975942210
O             0.4974740404       -0.0026698504        0.6961604670
O             0.0122486368        0.4579252668        0.7296134288
O             0.4786671761        0.4968693011        0.7271029177
H             0.1507423274        0.4804640701        0.2567160584
H             0.1507423274        0.4804640701        0.7432839416
H            -0.0003393524        0.1536580319        0.2757790902
H            -0.0003393524        0.1536580319        0.7242209098
H             0.4960244906        0.9521881201        0.2609757282
H             0.4960244906        0.9521881201        0.7390242718



     Writing config-only to output data dir /storage/home/mgm6007/ixd4/Maria/StrainJin_Files/RuO2-110-0-025/RuO2-110-0-025.save/
     NEW-OLD atomic charge density approx. for the potential

     Check: negative core charge=   -0.000001

     negative rho (up, down):  1.389E-04 0.000E+00

     add environment contribution to local potential
     Polarization accuracy = 1.0E-11, # of iterations =  44

     total cpu time spent up to now is    12784.1 secs

     per-process dynamical memory:   215.5 Mb

     Self-consistent Calculation

     iteration #  1     ecut=    50.00 Ry     beta= 0.70
     Davidson diagonalization with overlap
     ethr =  1.00E-06,  avg # of iterations = 17.0

     negative rho (up, down):  1.763E-04 0.000E+00

     add environment contribution to local potential
     Polarization accuracy = 3.8E-12, # of iterations =  45

     total cpu time spent up to now is    13064.1 secs

     total energy              =   -3435.11541674 Ry
     estimated scf accuracy    <       0.06448342 Ry
     electrostatic embedding   =      -0.05102447 Ry
     cavitation energy         =       0.02095607 Ry
     PV energy                 =      -0.08032491 Ry
     correction to one-el term =     190.31249831 Ry

     iteration #  2     ecut=    50.00 Ry     beta= 0.70
     Davidson diagonalization with overlap
     ethr =  1.76E-05,  avg # of iterations =  2.0

     negative rho (up, down):  1.191E-04 0.000E+00

     add environment contribution to local potential
     Polarization accuracy = 4.2E-12, # of iterations =  45

     total cpu time spent up to now is    13335.5 secs

     total energy              =   -3435.11866713 Ry
     estimated scf accuracy    <       0.07498877 Ry
     electrostatic embedding   =      -0.05163648 Ry
     cavitation energy         =       0.02095809 Ry
     PV energy                 =      -0.08030437 Ry
     correction to one-el term =     190.37884730 Ry

     iteration #  3     ecut=    50.00 Ry     beta= 0.70
     Davidson diagonalization with overlap
     ethr =  1.76E-05,  avg # of iterations =  1.0

     negative rho (up, down):  1.158E-04 0.000E+00

     add environment contribution to local potential
     Polarization accuracy = 4.2E-12, # of iterations =  45

     total cpu time spent up to now is    13594.2 secs

     total energy              =   -3435.12163675 Ry
     estimated scf accuracy    <       0.00978662 Ry
     electrostatic embedding   =      -0.05175534 Ry
     cavitation energy         =       0.02094676 Ry
     PV energy                 =      -0.08032813 Ry
     correction to one-el term =     190.26170127 Ry

     iteration #  4     ecut=    50.00 Ry     beta= 0.70
     Davidson diagonalization with overlap
     ethr =  2.67E-06,  avg # of iterations =  2.0

     negative rho (up, down):  9.756E-05 0.000E+00

     add environment contribution to local potential
     Polarization accuracy = 4.8E-12, # of iterations =  45

     total cpu time spent up to now is    13865.3 secs

     total energy              =   -3435.12206983 Ry
     estimated scf accuracy    <       0.00281746 Ry
     electrostatic embedding   =      -0.05233288 Ry
     cavitation energy         =       0.02094664 Ry
     PV energy                 =      -0.08033008 Ry
     correction to one-el term =     190.17860204 Ry

     iteration #  5     ecut=    50.00 Ry     beta= 0.70
     Davidson diagonalization with overlap
     ethr =  7.70E-07,  avg # of iterations =  1.5

     negative rho (up, down):  8.073E-05 0.000E+00

     add environment contribution to local potential
     Polarization accuracy = 7.6E-12, # of iterations =  45

     total cpu time spent up to now is    14190.4 secs

     total energy              =   -3435.12227382 Ry
     estimated scf accuracy    <       0.00135049 Ry
     electrostatic embedding   =      -0.05273475 Ry
     cavitation energy         =       0.02094562 Ry
     PV energy                 =      -0.08033249 Ry
     correction to one-el term =     190.08833429 Ry

     iteration #  6     ecut=    50.00 Ry     beta= 0.70
     Davidson diagonalization with overlap
     ethr =  3.69E-07,  avg # of iterations =  1.0

     negative rho (up, down):  6.530E-05 0.000E+00

     add environment contribution to local potential
     Polarization accuracy = 5.7E-12, # of iterations =  45

     total cpu time spent up to now is    14494.2 secs

     total energy              =   -3435.12234758 Ry
     estimated scf accuracy    <       0.00007620 Ry
     electrostatic embedding   =      -0.05303665 Ry
     cavitation energy         =       0.02094568 Ry
     PV energy                 =      -0.08033217 Ry
     correction to one-el term =     190.01306279 Ry

     iteration #  7     ecut=    50.00 Ry     beta= 0.70
     Davidson diagonalization with overlap
     ethr =  2.08E-08,  avg # of iterations =  3.0

     negative rho (up, down):  5.432E-05 0.000E+00

     add environment contribution to local potential
     Polarization accuracy = 5.2E-12, # of iterations =  46

     total cpu time spent up to now is    14731.4 secs

     total energy              =   -3435.12236073 Ry
     estimated scf accuracy    <       0.00004650 Ry
     electrostatic embedding   =      -0.05329153 Ry
     cavitation energy         =       0.02094714 Ry
     PV energy                 =      -0.08032955 Ry
     correction to one-el term =     189.94183106 Ry

     iteration #  8     ecut=    50.00 Ry     beta= 0.70
     Davidson diagonalization with overlap
     ethr =  1.27E-08,  avg # of iterations =  2.0

     negative rho (up, down):  5.025E-05 0.000E+00

     add environment contribution to local potential
     Polarization accuracy = 4.8E-12, # of iterations =  46

     total cpu time spent up to now is    15012.3 secs

     total energy              =   -3435.12236660 Ry
     estimated scf accuracy    <       0.00002577 Ry
     electrostatic embedding   =      -0.05354939 Ry
     cavitation energy         =       0.02094978 Ry
     PV energy                 =      -0.08032501 Ry
     correction to one-el term =     189.87103337 Ry

     iteration #  9     ecut=    50.00 Ry     beta= 0.70
     Davidson diagonalization with overlap
     ethr =  7.04E-09,  avg # of iterations =  2.0

     negative rho (up, down):  5.095E-05 0.000E+00

     add environment contribution to local potential
     Polarization accuracy = 4.0E-12, # of iterations =  46

     total cpu time spent up to now is    15278.0 secs

     total energy              =   -3435.12237032 Ry
     estimated scf accuracy    <       0.00000704 Ry
     electrostatic embedding   =      -0.05374842 Ry
     cavitation energy         =       0.02095233 Ry
     PV energy                 =      -0.08032030 Ry
     correction to one-el term =     189.82189445 Ry

     iteration # 10     ecut=    50.00 Ry     beta= 0.70
     Davidson diagonalization with overlap
     ethr =  1.92E-09,  avg # of iterations =  2.0

     negative rho (up, down):  5.449E-05 0.000E+00

[...]
     atom    5 type  2   force =    -0.19297895    1.07300586  171.03104452
     atom    6 type  2   force =     0.40916631    1.20407123  171.47354648
     atom    7 type  1   force =    -0.74640754   -0.04691729   60.26461667
     atom    8 type  1   force =     0.50198401    0.01767161   62.04952244
     atom    9 type  2   force =     0.74559546   -1.86395982  170.54459513
     atom   10 type  2   force =    -0.61572378   -1.19545771  175.22999374
     atom   11 type  1   force =    -0.60415780   -0.24939290   66.26103569
     atom   12 type  1   force =     0.33879120   -0.40200227   66.94764595
     atom   13 type  1   force =     0.01367982    0.39472372   38.55972176
     atom   14 type  1   force =    -0.12317341    0.47192138   38.55477754
     atom   15 type  1   force =    -0.06368136   -0.24816220   25.35355178
     atom   16 type  1   force =    -0.31572198   -0.28174611   27.25481864
     atom   17 type  2   force =     0.55905099   -0.53704248   -0.00585603
     atom   18 type  2   force =     0.33059968   -0.72485286   -0.00585223
     atom   19 type  1   force =    -0.14156006   -0.83676447   -0.00245898
     atom   20 type  1   force =     0.14077355   -0.85256162   -0.00246410
     atom   21 type  2   force =    -1.57378056    0.08378115   -0.00604551
     atom   22 type  2   force =     1.57100735    0.14692274   -0.00605571
     atom   23 type  1   force =    -0.15130588    0.87729116   -0.00246255
     atom   24 type  1   force =     0.17224904    0.86882120   -0.00246477
     atom   25 type  1   force =    -0.06367664   -0.24817212  -25.35532433
     atom   26 type  1   force =    -0.31571344   -0.28176111  -27.25660516
     atom   27 type  1   force =     0.01367704    0.39472164  -38.56151181
     atom   28 type  1   force =    -0.12317199    0.47191386  -38.55655002
     atom   29 type  2   force =    -0.19297143    1.07299562 -171.03713226
     atom   30 type  2   force =     0.40915630    1.20406855 -171.47963119
     atom   31 type  1   force =    -0.74639252   -0.04689530  -60.26706167
     atom   32 type  1   force =     0.50196737    0.01769350  -62.05198746
     atom   33 type  2   force =     0.74560256   -1.86402044 -170.55047829
     atom   34 type  2   force =    -0.61575254   -1.19546009 -175.23574305
     atom   35 type  1   force =    -0.60412508   -0.24942357  -66.26350398
     atom   36 type  1   force =     0.33876013   -0.40202864  -66.95012209
     atom   37 type  1   force =     0.13232929    2.20062829  -92.77246551
     atom   38 type  1   force =    -0.15054638    0.13142887  -91.98484539
     atom   39 type  1   force =     1.46811390   -0.11854036  -95.58956125
     atom   40 type  1   force =    -0.06261641   -0.05315666 -100.12432385
     atom   41 type  3   force =    -2.66745456   -0.77202029   16.49145731
     atom   42 type  3   force =    -2.66745456   -0.77202029  -16.49145731
     atom   43 type  3   force =     0.05784930   -1.56514325   16.90332283
     atom   44 type  3   force =     0.05784930   -1.56514325  -16.90332283
     atom   45 type  3   force =    -0.01314012    0.40818943   18.42030059
     atom   46 type  3   force =    -0.01314012    0.40818943  -18.42030059
     The core correction contribution to forces
     atom    1 type  1   force =    -0.01705166   -0.00361034   -0.00355785
     atom    2 type  1   force =    -0.00014556   -0.00025210   -0.01039284
     atom    3 type  1   force =    -0.00001908   -0.01330795   -0.00229200
     atom    4 type  1   force =     0.00017322    0.00261474    0.00918514
     atom    5 type  2   force =     0.00000000    0.00000000    0.00000000
     atom    6 type  2   force =     0.00000000    0.00000000    0.00000000
     atom    7 type  1   force =    -0.00057785   -0.00003879    0.00184776
     atom    8 type  1   force =     0.00114146   -0.00000089    0.00129717
     atom    9 type  2   force =     0.00000000    0.00000000    0.00000000
     atom   10 type  2   force =     0.00000000    0.00000000    0.00000000
     atom   11 type  1   force =    -0.00014086    0.00017046   -0.00042535
     atom   12 type  1   force =     0.00067715    0.00026881   -0.00078288
     atom   13 type  1   force =     0.00012759   -0.00006382    0.00003215
     atom   14 type  1   force =     0.00015213   -0.00070491   -0.00028697
     atom   15 type  1   force =     0.00066233    0.00054212    0.00032206
     atom   16 type  1   force =     0.00043605    0.00010719   -0.00269648
     atom   17 type  2   force =     0.00000000    0.00000000    0.00000000
     atom   18 type  2   force =     0.00000000    0.00000000    0.00000000
     atom   19 type  1   force =    -0.00058634   -0.00053096   -0.00000201
     atom   20 type  1   force =    -0.00016865   -0.00052524   -0.00000204
     atom   21 type  2   force =     0.00000000    0.00000000    0.00000000
     atom   22 type  2   force =     0.00000000    0.00000000    0.00000000
     atom   23 type  1   force =    -0.00046728    0.00058677   -0.00000193
     atom   24 type  1   force =    -0.00031654    0.00052677   -0.00000196
     atom   25 type  1   force =     0.00066226    0.00054230   -0.00032433
     atom   26 type  1   force =     0.00043603    0.00010715    0.00269441
     atom   27 type  1   force =     0.00012759   -0.00006389   -0.00003437
     atom   28 type  1   force =     0.00015214   -0.00070507    0.00028476
     atom   29 type  2   force =     0.00000000    0.00000000    0.00000000
     atom   30 type  2   force =     0.00000000    0.00000000    0.00000000
     atom   31 type  1   force =    -0.00057785   -0.00003877   -0.00184956
     atom   32 type  1   force =     0.00114142   -0.00000079   -0.00129905
     atom   33 type  2   force =     0.00000000    0.00000000    0.00000000
     atom   34 type  2   force =     0.00000000    0.00000000    0.00000000
     atom   35 type  1   force =    -0.00014074    0.00017038    0.00042335
     atom   36 type  1   force =     0.00067706    0.00026869    0.00078093
     atom   37 type  1   force =    -0.00001906   -0.01330983    0.00228832
     atom   38 type  1   force =     0.00017320    0.00261516   -0.00919091
     atom   39 type  1   force =    -0.01705245   -0.00361037    0.00355538
     atom   40 type  1   force =    -0.00014573   -0.00025209    0.01039103
     atom   41 type  3   force =     0.00000000    0.00000000    0.00000000
     atom   42 type  3   force =     0.00000000    0.00000000    0.00000000
     atom   43 type  3   force =     0.00000000    0.00000000    0.00000000
     atom   44 type  3   force =     0.00000000    0.00000000    0.00000000
     atom   45 type  3   force =     0.00000000    0.00000000    0.00000000
     atom   46 type  3   force =     0.00000000    0.00000000    0.00000000
     The Hubbard contrib.    to forces
     atom    1 type  1   force =     0.00000000    0.00000000    0.00000000
     atom    2 type  1   force =     0.00000000    0.00000000    0.00000000
     atom    3 type  1   force =     0.00000000    0.00000000    0.00000000
     atom    4 type  1   force =     0.00000000    0.00000000    0.00000000
     atom    5 type  2   force =     0.00000000    0.00000000    0.00000000
     atom    6 type  2   force =     0.00000000    0.00000000    0.00000000
     atom    7 type  1   force =     0.00000000    0.00000000    0.00000000
     atom    8 type  1   force =     0.00000000    0.00000000    0.00000000
     atom    9 type  2   force =     0.00000000    0.00000000    0.00000000
     atom   10 type  2   force =     0.00000000    0.00000000    0.00000000
     atom   11 type  1   force =     0.00000000    0.00000000    0.00000000
     atom   12 type  1   force =     0.00000000    0.00000000    0.00000000
     atom   13 type  1   force =     0.00000000    0.00000000    0.00000000
     atom   14 type  1   force =     0.00000000    0.00000000    0.00000000
     atom   15 type  1   force =     0.00000000    0.00000000    0.00000000
     atom   16 type  1   force =     0.00000000    0.00000000    0.00000000
     atom   17 type  2   force =     0.00000000    0.00000000    0.00000000
     atom   18 type  2   force =     0.00000000    0.00000000    0.00000000
     atom   19 type  1   force =     0.00000000    0.00000000    0.00000000
     atom   20 type  1   force =     0.00000000    0.00000000    0.00000000
     atom   21 type  2   force =     0.00000000    0.00000000    0.00000000
     atom   22 type  2   force =     0.00000000    0.00000000    0.00000000
     atom   23 type  1   force =     0.00000000    0.00000000    0.00000000
     atom   24 type  1   force =     0.00000000    0.00000000    0.00000000
     atom   25 type  1   force =     0.00000000    0.00000000    0.00000000
     atom   26 type  1   force =     0.00000000    0.00000000    0.00000000
     atom   27 type  1   force =     0.00000000    0.00000000    0.00000000
     atom   28 type  1   force =     0.00000000    0.00000000    0.00000000
     atom   29 type  2   force =     0.00000000    0.00000000    0.00000000
     atom   30 type  2   force =     0.00000000    0.00000000    0.00000000
     atom   31 type  1   force =     0.00000000    0.00000000    0.00000000
     atom   32 type  1   force =     0.00000000    0.00000000    0.00000000
     atom   33 type  2   force =     0.00000000    0.00000000    0.00000000
     atom   34 type  2   force =     0.00000000    0.00000000    0.00000000
     atom   35 type  1   force =     0.00000000    0.00000000    0.00000000
     atom   36 type  1   force =     0.00000000    0.00000000    0.00000000
     atom   37 type  1   force =     0.00000000    0.00000000    0.00000000
     atom   38 type  1   force =     0.00000000    0.00000000    0.00000000
     atom   39 type  1   force =     0.00000000    0.00000000    0.00000000
     atom   40 type  1   force =     0.00000000    0.00000000    0.00000000
     atom   41 type  3   force =     0.00000000    0.00000000    0.00000000
     atom   42 type  3   force =     0.00000000    0.00000000    0.00000000
     atom   43 type  3   force =     0.00000000    0.00000000    0.00000000
     atom   44 type  3   force =     0.00000000    0.00000000    0.00000000
     atom   45 type  3   force =     0.00000000    0.00000000    0.00000000
     atom   46 type  3   force =     0.00000000    0.00000000    0.00000000
     The SCF correction term to forces
     atom    1 type  1   force =     0.00000009    0.00000016    0.00000044
     atom    2 type  1   force =    -0.00000001    0.00000069    0.00000082
     atom    3 type  1   force =     0.00000012   -0.00000052    0.00000100
     atom    4 type  1   force =    -0.00000015   -0.00000073    0.00000072
     atom    5 type  2   force =     0.00000098   -0.00000080    0.00000206
     atom    6 type  2   force =    -0.00000096   -0.00000073    0.00000221
     atom    7 type  1   force =     0.00000066   -0.00000033    0.00000078
     atom    8 type  1   force =    -0.00000072   -0.00000045    0.00000094
     atom    9 type  2   force =     0.00000025    0.00000066    0.00000222
     atom   10 type  2   force =    -0.00000028    0.00000096    0.00000188
     atom   11 type  1   force =     0.00000073    0.00000050    0.00000047
     atom   12 type  1   force =    -0.00000063    0.00000058    0.00000052
     atom   13 type  1   force =     0.00000012   -0.00000011    0.00000070
     atom   14 type  1   force =    -0.00000009   -0.00000033    0.00000100
     atom   15 type  1   force =     0.00000034    0.00000021    0.00000105
     atom   16 type  1   force =    -0.00000018    0.00000046    0.00000089
     atom   17 type  2   force =     0.00000030    0.00000010    0.00000000
     atom   18 type  2   force =    -0.00000033   -0.00000005    0.00000000
     atom   19 type  1   force =     0.00000077    0.00000012    0.00000000
     atom   20 type  1   force =    -0.00000073   -0.00000011    0.00000000
     atom   21 type  2   force =     0.00000104   -0.00000003    0.00000000
     atom   22 type  2   force =    -0.00000134   -0.00000005    0.00000000
     atom   23 type  1   force =     0.00000071    0.00000016    0.00000000
     atom   24 type  1   force =    -0.00000072    0.00000038    0.00000000
     atom   25 type  1   force =     0.00000034    0.00000021   -0.00000105
     atom   26 type  1   force =    -0.00000018    0.00000046   -0.00000088
     atom   27 type  1   force =     0.00000012   -0.00000011   -0.00000070
     atom   28 type  1   force =    -0.00000009   -0.00000033   -0.00000100
     atom   29 type  2   force =     0.00000099   -0.00000080   -0.00000206
     atom   30 type  2   force =    -0.00000096   -0.00000074   -0.00000221
     atom   31 type  1   force =     0.00000066   -0.00000033   -0.00000078
     atom   32 type  1   force =    -0.00000072   -0.00000045   -0.00000094
     atom   33 type  2   force =     0.00000025    0.00000066   -0.00000222
     atom   34 type  2   force =    -0.00000028    0.00000096   -0.00000189
     atom   35 type  1   force =     0.00000073    0.00000050   -0.00000047
     atom   36 type  1   force =    -0.00000063    0.00000058   -0.00000052
     atom   37 type  1   force =     0.00000012   -0.00000052   -0.00000100
     atom   38 type  1   force =    -0.00000015   -0.00000073   -0.00000072
     atom   39 type  1   force =     0.00000009    0.00000016   -0.00000044
     atom   40 type  1   force =    -0.00000001    0.00000069   -0.00000082
     atom   41 type  3   force =     0.00000008    0.00000005    0.00000008
     atom   42 type  3   force =     0.00000008    0.00000005   -0.00000008
     atom   43 type  3   force =     0.00000002   -0.00000007    0.00000011
     atom   44 type  3   force =     0.00000002   -0.00000007   -0.00000011
     atom   45 type  3   force =    -0.00000002   -0.00000008    0.00000015
     atom   46 type  3   force =    -0.00000002   -0.00000008   -0.00000015

     Total force =     0.000386     Total SCF correction =     0.000009
     Energy error            =      2.5E-07 Ry
     Gradient error          =      9.5E-05 Ry/Bohr

     bfgs converged in  60 scf cycles and  59 bfgs steps
     (criteria: energy <  1.0E-04 Ry, force <  1.0E-04 Ry/Bohr)

     End of BFGS Geometry Optimization

     Final energy             =   -3435.1483270996 Ry

     File /storage/home/mgm6007/ixd4/Maria/StrainJin_Files/RuO2-110-0-025/RuO2-110-0-025.bfgs deleted, as requested
Begin final coordinates

ATOMIC_POSITIONS (crystal)
O             0.0044193499        0.4380891120        0.2689913457
O             0.4862728456        0.4868861926        0.2725840281
O            -0.0009713597        0.0053608868        0.3012008898
O             0.4981148762       -0.0019208839        0.3046284381
Ru            0.2483688176       -0.0051201393        0.3588403341
Ru            0.7489300757       -0.0053329270        0.3585781150
O             0.2501479428        0.3066037318        0.3624439998
O             0.7506377629        0.3068841233        0.3600404259
Ru            0.0007689536        0.4939939413        0.3576827998
Ru            0.5018304857        0.4939034109        0.3507478964
O             0.2430292595        0.6848775676        0.3544539401
O             0.7567014039        0.6829606032        0.3537881578
O            -0.0025965219       -0.0054790586        0.4110410482
O             0.4989936598       -0.0089993966        0.4117532536
O             0.0034103335        0.5043416710        0.4462432831
O             0.5023092414        0.5057395018        0.4427015629
Ru           -0.0037085802        0.0025120029        0.5000010000
Ru            0.4963788624        0.0033710942        0.5000010000
O             0.2444086800        0.1898770407        0.5000010000
O             0.7440360768        0.1900782785        0.5000010000
Ru            0.2582424867        0.5037777573        0.5000010000
Ru            0.7538110479        0.5036201800        0.5000010000
O             0.2444998405        0.8172903444        0.5000010000
O             0.7444590830        0.8169303844        0.5000010000
O             0.0034103335        0.5043416710        0.5537577169
O             0.5023092414        0.5057395018        0.5572994371
O            -0.0025965219       -0.0054790586        0.5889599518
O             0.4989936598       -0.0089993966        0.5882477464
Ru            0.2483688176       -0.0051201393        0.6411606659
Ru            0.7489300757       -0.0053329270        0.6414228850
O             0.2501479428        0.3066037318        0.6375570002
O             0.7506377629        0.3068841233        0.6399605741
Ru            0.0007689536        0.4939939413        0.6423182002
Ru            0.5018304857        0.4939034109        0.6492531036
O             0.2430292595        0.6848775676        0.6455470599
O             0.7567014039        0.6829606032        0.6462128422
O            -0.0009713597        0.0053608868        0.6988011102
O             0.4981148762       -0.0019208839        0.6953735619
O             0.0044193499        0.4380891120        0.7310096543
O             0.4862728456        0.4868861926        0.7274169719
H             0.1396952782        0.4733598638        0.2527097678
H             0.1396952782        0.4733598638        0.7472902322
H            -0.0007862934        0.1520856518        0.2785399360
H            -0.0007862934        0.1520856518        0.7214600640
H             0.4972951401        0.9780386068        0.2608619707
H             0.4972951401        0.9780386068        0.7391380293
End final coordinates



     Writing all to output data dir /storage/home/mgm6007/ixd4/Maria/StrainJin_Files/RuO2-110-0-025/RuO2-110-0-025.save/
 
     init_run     :    375.98s CPU    987.74s WALL (       1 calls)
     electrons    :  64405.91s CPU 160788.49s WALL (      60 calls)
     update_pot   :     99.62s CPU     99.66s WALL (      59 calls)
     forces       :    105.09s CPU    105.63s WALL (      60 calls)

     Called by init_run:
     wfcinit      :      0.98s CPU      0.98s WALL (       1 calls)
     potinit      :    243.68s CPU    705.34s WALL (       1 calls)
     hinit0       :    130.86s CPU    280.92s WALL (       1 calls)

     Called by electrons:
     c_bands      :   2771.89s CPU   2783.53s WALL (    1117 calls)
     sum_band     :    472.41s CPU    472.75s WALL (    1117 calls)
     v_of_rho     :    144.38s CPU    144.72s WALL (    1126 calls)
     newd         :     80.67s CPU     80.72s WALL (    1126 calls)
     PAW_pot      :    137.41s CPU    137.44s WALL (    1185 calls)
     mix_rho      :    788.61s CPU    788.84s WALL (    1117 calls)

     Called by c_bands:
     init_us_2    :     30.96s CPU     31.01s WALL (    4708 calls)
     init_us_2:cp :     30.93s CPU     30.99s WALL (    4708 calls)
     cegterg      :   2657.18s CPU   2659.08s WALL (    2234 calls)

     Called by *egterg:
     cdiaghg      :    324.70s CPU    324.87s WALL (    6692 calls)
     h_psi        :   1346.82s CPU   1348.03s WALL (    6914 calls)
     s_psi        :    208.26s CPU    208.32s WALL (    6914 calls)
     g_psi        :      6.47s CPU      6.48s WALL (    4678 calls)

     Called by h_psi:
     h_psi:calbec :    208.98s CPU    209.06s WALL (    6914 calls)
     vloc_psi     :    914.96s CPU    915.99s WALL (    6914 calls)
     add_vuspsi   :    207.54s CPU    207.66s WALL (    6914 calls)

     General routines
     calbec       :    328.88s CPU    329.00s WALL (    9746 calls)
     fft          :  11868.58s CPU  11869.80s WALL (   15288 calls)
     ffts         :    299.34s CPU    299.24s WALL (  472579 calls)
     fftw         :    842.16s CPU    842.72s WALL ( 2609308 calls)
     interpolate  :  11784.07s CPU  11785.29s WALL (    1126 calls)
 
     Parallel routines
 
     Environ routines
 
     PWSCF        :     19h 0m CPU   1d23h19m WALL

 
   This run was terminated on:  10:44:22  28Jul2023            

=------------------------------------------------------------------------------=
   JOB DONE.
=------------------------------------------------------------------------------=
