
     Program PWSCF v.7.2 starts on 24Jul2023 at 16:17:39 
        Git branch: heads/qe-7.2
        Last git commit: b4c5e8deeb7d1863e7553a87b45f8d22c21926a5
        Last git commit date: Mon Mar 27 16:12:09 2023 +0000
        Last git commit subject: Merge branch 'merge_fix_hubbard' into 'develop'

     This program is part of the open-source Quantum ESPRESSO suite
     for quantum simulation of materials; please cite
         "P. Giannozzi et al., J. Phys.:Condens. Matter 21 395502 (2009);
         "P. Giannozzi et al., J. Phys.:Condens. Matter 29 465901 (2017);
         "P. Giannozzi et al., J. Chem. Phys. 152 154105 (2020);
          URL http://www.quantum-espresso.org", 
     in publications or presentations arising from this work. More details at
     http://www.quantum-espresso.org/quote

     Parallel version (MPI), running on    20 processors

     MPI processes distributed on     1 nodes
     84912 MiB available memory on the printing compute node when the environment starts
 
     Reading input from RuO2-110-0-01.in

     Current dimensions of program PWSCF are:
     Max number of different atomic species (ntypx) = 10
     Max number of k-points (npk) =  40000
     Max angular momentum in pseudopotentials (lmaxx) =  4
 
     Reading input from environ.in:
     * Environ restarting
     * setting up water environment
     * using electronic solvent mode
     * setting boundary derivatives method to SCCS default
     
     file O.pbe-n-kjpaw_psl.0.1.UPF: wavefunction(s)  2P renormalized
     Found identity + ( -0.5000  0.0000 -0.0000) symmetry
     This is a supercell, fractional translations are disabled
     Message from routine setup:
     using ibrav=0 with symmetry is DISCOURAGED, use correct ibrav instead
 
     R & G space division:  proc/nbgrp/npool/nimage =      20
     Subspace diagonalization in iterative solution of the eigenvalue problem:
     one sub-group per band group will be used
     scalapack distributed-memory algorithm (size of sub-group:  2*  2 procs)

 
     Parallelization info
     --------------------
     sticks:   dense  smooth     PW     G-vecs:    dense   smooth      PW
     Min         276     110     29                54982    13912    1877
     Max         277     111     30                54993    13923    1888
     Sum        5537    2217    585              1099789   278381   37601
 
     Using Slab Decomposition
 


     bravais-lattice index     =            0
     lattice parameter (alat)  =      12.3824  a.u.
     unit-cell volume          =    5825.9133 (a.u.)^3
     number of atoms/cell      =           44
     number of atomic types    =            3
     number of electrons       =       364.00
     number of Kohn-Sham states=          218
     kinetic-energy cutoff     =      50.0000  Ry
     charge density cutoff     =     500.0000  Ry
     scf convergence threshold =      1.0E-09
     mixing beta               =       0.7000
     number of iterations used =            8  local-TF  mixing
     energy convergence thresh.=      1.0E-04
     force convergence thresh. =      1.0E-04
     Exchange-correlation= PBE
                           (   1   4   3   4   0   0   0)
     nstep                     =          200


     ================================================================================
 
                                  Environ Setup Summary

     ================================================================================
 
     Please cite

          O. Andreussi, I. Dabo and N. Marzari, J. Chem. Phys. 136, 064102 (2012)

     in publications or presentations arising from this work.

     ================================================================================
 
     Parameters
     ==========

     compensation onset threshold      =               0.1000E+00
     static permittivity               =                    78.30
     surface tension in input (dyn/cm) =                    47.90
     surface tension in internal units =               0.6153E-04
     external pressure in input (GPa)  =                    -0.36
     external pressure in inter. units =              -0.2447E-04

     Solvent Boundary
     ================

     solvent mode                      =               electronic
     derivatives method                =                    chain
     numerical core for derivatives    =                      fft
     switching function adopted        =                     SCCS
     density limit for vacuum region   =               0.5000E-02
     density limit for bulk solvent    =               0.1000E-03

     Electrostatic Setup
     ===================

     electrostatic problem to solve    =              generalized
     numerical solver adopted          =                       cg
     type of auxiliary density adopted =                     none
     numerical core for poisson        =                      fft
     type of pbc corrections           =                parabolic
     numerical core for corrections    =                      1da

     ================================================================================
 

     celldm(1)=  12.382447  celldm(2)=   0.000000  celldm(3)=   0.000000
     celldm(4)=   0.000000  celldm(5)=   0.000000  celldm(6)=   0.000000

     crystal axes: (cart. coord. in units of alat)
               a(1) = (   1.000000   0.000000   0.000000 )  
               a(2) = (   0.000000   0.908473   0.000000 )  
               a(3) = (   0.000000   0.000000   3.377790 )  

     reciprocal axes: (cart. coord. in units 2 pi/alat)
               b(1) = (  1.000000  0.000000  0.000000 )  
               b(2) = (  0.000000  1.100748  0.000000 )  
               b(3) = (  0.000000  0.000000  0.296052 )  


     PseudoPot. # 1 for O  read from file:
     /gpfs/group/ixd4/default/Simon/pseudopotentials/materialscloud/SSSP_1.3.0_PBE_efficiency/O.pbe-n-kjpaw_psl.0.1.UPF
     MD5 check sum: 0234752ac141de4415c5fc33072bef88
     Pseudo is Projector augmented-wave + core cor, Zval =  6.0
     Generated using "atomic" code by A. Dal Corso  v.5.0.99 svn rev. 10869
     Shape of augmentation charge: BESSEL
     Using radial grid of 1095 points,  4 beta functions with: 
                l(1) =   0
                l(2) =   0
                l(3) =   1
                l(4) =   1
     Q(r) pseudized with 0 coefficients 


     PseudoPot. # 2 for Ru read from file:
     /gpfs/group/ixd4/default/Simon/pseudopotentials/materialscloud/SSSP_1.3.0_PBE_efficiency/Ru_ONCV_PBE-1.0.oncvpsp.upf
     MD5 check sum: be037bb81c227cfb9b1461a9f099f4bd
     Pseudo is Norm-conserving, Zval = 16.0
     Generated using ONCVPSP code by D. R. Hamann
     Using radial grid of 1458 points,  6 beta functions with: 
                l(1) =   0
                l(2) =   0
                l(3) =   1
                l(4) =   1
                l(5) =   2
                l(6) =   2

     PseudoPot. # 3 for H  read from file:
     /gpfs/group/ixd4/default/Simon/pseudopotentials/materialscloud/SSSP_1.3.0_PBE_efficiency/H.pbe-rrkjus_psl.1.0.0.UPF
     MD5 check sum: f52b6d4d1c606e5624b1dc7b2218f220
     Pseudo is Ultrasoft, Zval =  1.0
     Generated using "atomic" code by A. Dal Corso  v.5.1
     Using radial grid of  929 points,  2 beta functions with: 
                l(1) =   0
                l(2) =   0
     Q(r) pseudized with 0 coefficients 


     atomic species   valence    mass     pseudopotential
        O              6.00    15.99940     O ( 1.00)
        Ru            16.00   101.07000     Ru( 1.00)
        H              1.00     1.00794     H ( 1.00)

      4 Sym. Ops. (no inversion) found



   Cartesian axes

     site n.     atom                  positions (alat units)
         1           O   tau(   1) = (  -0.0094134   0.4542364   0.9161621  )
         2           O   tau(   2) = (   0.4905867   0.4542364   0.9161609  )
         3           O   tau(   3) = (  -0.0013620   0.0000000   1.0381566  )
         4           O   tau(   4) = (   0.4986380   0.0000000   1.0381567  )
         5           Ru  tau(   5) = (   0.2484598   0.0000000   1.1967556  )
         6           Ru  tau(   6) = (   0.7484599   0.0000000   1.1967557  )
         7           O   tau(   7) = (   0.2475050   0.2806511   1.2077001  )
         8           O   tau(   8) = (   0.7475051   0.2806510   1.2077001  )
         9           Ru  tau(   9) = (  -0.0033462   0.4542364   1.2075637  )
        10           Ru  tau(  10) = (   0.4966540   0.4542364   1.2075622  )
        11           O   tau(  11) = (   0.2475050   0.6278218   1.2077001  )
        12           O   tau(  12) = (   0.7475051   0.6278219   1.2077001  )
        13           O   tau(  13) = (  -0.0007368   0.0000000   1.3930255  )
        14           O   tau(  14) = (   0.4992628   0.0000000   1.3930255  )
        15           O   tau(  15) = (   0.0064095   0.4542364   1.5015439  )
        16           O   tau(  16) = (   0.5064096   0.4542364   1.5015410  )
        17           Ru  tau(  17) = (   0.0008011   0.0000000   1.6888985  )
        18           Ru  tau(  18) = (   0.5008004   0.0000000   1.6888985  )
        19           O   tau(  19) = (   0.2511985   0.1758927   1.6888985  )
        20           O   tau(  20) = (   0.7511981   0.1758919   1.6888985  )
        21           Ru  tau(  21) = (   0.2517502   0.4542364   1.6888985  )
        22           Ru  tau(  22) = (   0.7517481   0.4542364   1.6888985  )
        23           O   tau(  23) = (   0.2511985   0.7325810   1.6888985  )
        24           O   tau(  24) = (   0.7511981   0.7325819   1.6888985  )
        25           O   tau(  25) = (   0.0064095   0.4542364   1.8762498  )
        26           O   tau(  26) = (   0.5064096   0.4542364   1.8762527  )
        27           O   tau(  27) = (  -0.0007368   0.0000000   1.9847682  )
        28           O   tau(  28) = (   0.4992628   0.0000000   1.9847682  )
        29           Ru  tau(  29) = (   0.2484598   0.0000000   2.1810381  )
        30           Ru  tau(  30) = (   0.7484599   0.0000000   2.1810380  )
        31           O   tau(  31) = (   0.2475050   0.2806511   2.1700936  )
        32           O   tau(  32) = (   0.7475051   0.2806510   2.1700936  )
        33           Ru  tau(  33) = (  -0.0033462   0.4542364   2.1702300  )
        34           Ru  tau(  34) = (   0.4966540   0.4542364   2.1702315  )
        35           O   tau(  35) = (   0.2475050   0.6278218   2.1700936  )
        36           O   tau(  36) = (   0.7475051   0.6278219   2.1700936  )
        37           O   tau(  37) = (  -0.0013620   0.0000000   2.3396405  )
        38           O   tau(  38) = (   0.4986380   0.0000000   2.3396404  )
        39           O   tau(  39) = (  -0.0094134   0.4542364   2.4616316  )
        40           O   tau(  40) = (   0.4905867   0.4542364   2.4616328  )
        41           H   tau(  41) = (   0.1301407   0.4542364   0.8527870  )
        42           H   tau(  42) = (   0.1301407   0.4542364   2.5250033  )
        43           H   tau(  43) = (   0.6301408   0.4542364   0.8527860  )
        44           H   tau(  44) = (   0.6301408   0.4542364   2.5250043  )

     number of k points=     1  Marzari-Vanderbilt smearing, width (Ry)=  0.0300
                       cart. coord. in units 2pi/alat
        k(    1) = (   0.2500000   0.2751871   0.0000000), wk =   2.0000000

     Dense  grid:  1099789 G-vectors     FFT dimensions: (  90,  81, 300)

     Smooth grid:   278381 G-vectors     FFT dimensions: (  60,  54, 192)

     Estimated max dynamical RAM per process >     168.51 MB

     Estimated total dynamical RAM >       3.29 GB

     Check: negative core charge=   -0.000001

     Initial potential from superposition of free atoms

     starting charge     363.9933, renormalised to     364.0000

     add environment contribution to local potential
     Polarization accuracy = 6.0E-12, # of iterations =  21

     negative rho (up, down):  2.932E-05 0.000E+00
     Starting wfcs are  236 randomized atomic wfcs
     Checking if some PAW data can be deallocated... 

     total cpu time spent up to now is     1032.8 secs

     per-process dynamical memory:   137.8 Mb

     Self-consistent Calculation

     iteration #  1     ecut=    50.00 Ry     beta= 0.70
     Davidson diagonalization with overlap
     ethr =  1.00E-02,  avg # of iterations =  2.0

     total cpu time spent up to now is     1351.7 secs

     total energy              =   -3429.96456153 Ry
     estimated scf accuracy    <      10.21390767 Ry
     electrostatic embedding   =      -0.00181740 Ry
     cavitation energy         =       0.01962782 Ry
     PV energy                 =      -0.08306192 Ry
     correction to one-el term =     217.76135668 Ry

     iteration #  2     ecut=    50.00 Ry     beta= 0.70
     Davidson diagonalization with overlap
     ethr =  2.81E-03,  avg # of iterations =  2.0

     total cpu time spent up to now is     1599.6 secs

     total energy              =   -3432.28846467 Ry
     estimated scf accuracy    <       2.29370193 Ry
     electrostatic embedding   =      -0.00249536 Ry
     cavitation energy         =       0.01968805 Ry
     PV energy                 =      -0.08308730 Ry
     correction to one-el term =     217.76319552 Ry

     iteration #  3     ecut=    50.00 Ry     beta= 0.70
     Davidson diagonalization with overlap
     ethr =  6.30E-04,  avg # of iterations =  1.0

     total cpu time spent up to now is     1844.2 secs

     total energy              =   -3432.55951079 Ry
     estimated scf accuracy    <       0.17649280 Ry
     electrostatic embedding   =      -0.00275606 Ry
     cavitation energy         =       0.01970088 Ry
     PV energy                 =      -0.08300495 Ry
     correction to one-el term =     217.76386528 Ry

     iteration #  4     ecut=    50.00 Ry     beta= 0.70
     Davidson diagonalization with overlap
     ethr =  4.85E-05,  avg # of iterations =  9.0

     total cpu time spent up to now is     2150.0 secs

     total energy              =   -3432.57805445 Ry
     estimated scf accuracy    <       0.10233459 Ry
     electrostatic embedding   =      -0.00281074 Ry
     cavitation energy         =       0.01988936 Ry
     PV energy                 =      -0.08234889 Ry
     correction to one-el term =     217.76371692 Ry

     iteration #  5     ecut=    50.00 Ry     beta= 0.70
     Davidson diagonalization with overlap
     ethr =  2.81E-05,  avg # of iterations =  2.0

     add environment contribution to local potential
     Polarization accuracy = 6.9E-12, # of iterations =  32

     total cpu time spent up to now is     2436.3 secs

     total energy              =   -3432.57543380 Ry
     estimated scf accuracy    <       0.03493136 Ry
     electrostatic embedding   =      -0.00283980 Ry
     cavitation energy         =       0.02016895 Ry
     PV energy                 =      -0.08156095 Ry
     correction to one-el term =     217.76348729 Ry

     iteration #  6     ecut=    50.00 Ry     beta= 0.70
     Davidson diagonalization with overlap
     ethr =  9.60E-06,  avg # of iterations =  2.0

     add environment contribution to local potential
     Polarization accuracy = 2.3E-12, # of iterations =  33

     total cpu time spent up to now is     2738.7 secs

     total energy              =   -3432.59311823 Ry
     estimated scf accuracy    <       0.03897331 Ry
     electrostatic embedding   =      -0.02357307 Ry
     cavitation energy         =       0.02050887 Ry
     PV energy                 =      -0.08077890 Ry
     correction to one-el term =     196.52085146 Ry

     iteration #  7     ecut=    50.00 Ry     beta= 0.70
     Davidson diagonalization with overlap
     ethr =  9.60E-06,  avg # of iterations =  1.0

     add environment contribution to local potential
     Polarization accuracy = 4.9E-12, # of iterations =  34

     total cpu time spent up to now is     3034.8 secs

     total energy              =   -3432.59160446 Ry
     estimated scf accuracy    <       0.02938933 Ry
     electrostatic embedding   =      -0.02472254 Ry
     cavitation energy         =       0.02059993 Ry
     PV energy                 =      -0.08058649 Ry
     correction to one-el term =     195.85701397 Ry

     iteration #  8     ecut=    50.00 Ry     beta= 0.70
     Davidson diagonalization with overlap
     ethr =  8.07E-06,  avg # of iterations =  2.0

     add environment contribution to local potential
     Polarization accuracy = 2.5E-12, # of iterations =  42

     total cpu time spent up to now is     3283.9 secs

     total energy              =   -3432.58791858 Ry
     estimated scf accuracy    <       0.02784591 Ry
     electrostatic embedding   =      -0.02761774 Ry
     cavitation energy         =       0.02081073 Ry
     PV energy                 =      -0.08014140 Ry
     correction to one-el term =     194.46294355 Ry

     iteration #  9     ecut=    50.00 Ry     beta= 0.70
     Davidson diagonalization with overlap
     ethr =  7.65E-06,  avg # of iterations =  2.0

     add environment contribution to local potential
     Polarization accuracy = 6.8E-12, # of iterations =  41

     total cpu time spent up to now is     3568.0 secs

     total energy              =   -3432.58965041 Ry
     estimated scf accuracy    <       0.00955869 Ry
     electrostatic embedding   =      -0.03437185 Ry
     cavitation energy         =       0.02120283 Ry
     PV energy                 =      -0.07931808 Ry
     correction to one-el term =     192.44980974 Ry

     iteration # 10     ecut=    50.00 Ry     beta= 0.70
     Davidson diagonalization with overlap
     ethr =  2.63E-06,  avg # of iterations =  8.0

     negative rho (up, down):  1.196E-04 0.000E+00

     add environment contribution to local potential
     Polarization accuracy = 4.1E-12, # of iterations =  41

     total cpu time spent up to now is     3866.8 secs

     total energy              =   -3432.59028223 Ry
     estimated scf accuracy    <       0.00548205 Ry
     electrostatic embedding   =      -0.03442953 Ry
     cavitation energy         =       0.02112087 Ry
     PV energy                 =      -0.07925089 Ry
     correction to one-el term =     193.13004424 Ry

     iteration # 11     ecut=    50.00 Ry     beta= 0.70
     Davidson diagonalization with overlap
     ethr =  1.51E-06,  avg # of iterations =  2.0

     negative rho (up, down):  2.543E-07 0.000E+00

     add environment contribution to local potential
     Polarization accuracy = 8.3E-12, # of iterations =  39

     total cpu time spent up to now is     4170.6 secs

     total energy              =   -3432.59129892 Ry
     estimated scf accuracy    <       0.00175016 Ry
     electrostatic embedding   =      -0.03292089 Ry
     cavitation energy         =       0.02094579 Ry
     PV energy                 =      -0.07931558 Ry
     correction to one-el term =     194.48047091 Ry

     iteration # 12     ecut=    50.00 Ry     beta= 0.70
     Davidson diagonalization with overlap
     ethr =  4.81E-07,  avg # of iterations =  2.0

     negative rho (up, down):  4.741E-05 0.000E+00

     add environment contribution to local potential
     Polarization accuracy = 4.1E-12, # of iterations =  38

     total cpu time spent up to now is     4437.0 secs

     total energy              =   -3432.59183873 Ry
     estimated scf accuracy    <       0.00074147 Ry
     electrostatic embedding   =      -0.03099139 Ry
     cavitation energy         =       0.02083195 Ry
     PV energy                 =      -0.07944298 Ry
     correction to one-el term =     195.48798469 Ry

     iteration # 13     ecut=    50.00 Ry     beta= 0.70
     Davidson diagonalization with overlap
     ethr =  2.04E-07,  avg # of iterations =  2.0

     negative rho (up, down):  3.771E-07 0.000E+00

     add environment contribution to local potential
     Polarization accuracy = 7.7E-12, # of iterations =  37

     total cpu time spent up to now is     4714.1 secs

     total energy              =   -3432.59230069 Ry
     estimated scf accuracy    <       0.00023642 Ry
     electrostatic embedding   =      -0.02932560 Ry
     cavitation energy         =       0.02071972 Ry
     PV energy                 =      -0.07954566 Ry
     correction to one-el term =     196.70412704 Ry

     iteration # 14     ecut=    50.00 Ry     beta= 0.70
     Davidson diagonalization with overlap
     ethr =  6.49E-08,  avg # of iterations =  2.0

     negative rho (up, down):  3.543E-07 0.000E+00

     add environment contribution to local potential
     Polarization accuracy = 2.0E-12, # of iterations =  38

     total cpu time spent up to now is     5002.9 secs

     total energy              =   -3432.59247555 Ry
     estimated scf accuracy    <       0.00018616 Ry
     electrostatic embedding   =      -0.02855457 Ry
     cavitation energy         =       0.02071398 Ry
     PV energy                 =      -0.07958450 Ry
     correction to one-el term =     197.12010081 Ry

     iteration # 15     ecut=    50.00 Ry     beta= 0.70
     Davidson diagonalization with overlap
     ethr =  5.11E-08,  avg # of iterations =  2.0

     negative rho (up, down):  5.108E-06 0.000E+00

     add environment contribution to local potential
     Polarization accuracy = 3.1E-12, # of iterations =  38

     total cpu time spent up to now is     5304.4 secs

     total energy              =   -3432.59255687 Ry
     estimated scf accuracy    <       0.00004573 Ry
     electrostatic embedding   =      -0.02757623 Ry
     cavitation energy         =       0.02070279 Ry
     PV energy                 =      -0.07964074 Ry
     correction to one-el term =     197.57724189 Ry

     iteration # 16     ecut=    50.00 Ry     beta= 0.70
     Davidson diagonalization with overlap
     ethr =  1.26E-08,  avg # of iterations =  2.0

     negative rho (up, down):  4.269E-04 0.000E+00

     add environment contribution to local potential
     Polarization accuracy = 1.6E-12, # of iterations =  38

     total cpu time spent up to now is     5609.0 secs

     total energy              =   -3432.59257309 Ry
     estimated scf accuracy    <       0.00001335 Ry
     electrostatic embedding   =      -0.02731215 Ry
     cavitation energy         =       0.02071677 Ry
     PV energy                 =      -0.07964482 Ry
     correction to one-el term =     197.68174650 Ry

     iteration # 17     ecut=    50.00 Ry     beta= 0.70
     Davidson diagonalization with overlap
     ethr =  3.67E-09,  avg # of iterations =  2.0

     negative rho (up, down):  1.290E-04 0.000E+00

     add environment contribution to local potential
     Polarization accuracy = 1.6E-12, # of iterations =  38

     total cpu time spent up to now is     5840.3 secs

     total energy              =   -3432.59258059 Ry
     estimated scf accuracy    <       0.00000310 Ry
     electrostatic embedding   =      -0.02702689 Ry
     cavitation energy         =       0.02071826 Ry
     PV energy                 =      -0.07965541 Ry
     correction to one-el term =     197.79935747 Ry

     iteration # 18     ecut=    50.00 Ry     beta= 0.70
     Davidson diagonalization with overlap
     ethr =  8.53E-10,  avg # of iterations =  2.0

     negative rho (up, down):  2.520E-04 0.000E+00

     add environment contribution to local potential
     Polarization accuracy = 1.6E-12, # of iterations =  38

     total cpu time spent up to now is     6141.7 secs

     total energy              =   -3432.59258169 Ry
     estimated scf accuracy    <       0.00000110 Ry
     electrostatic embedding   =      -0.02706337 Ry
     cavitation energy         =       0.02071965 Ry
     PV energy                 =      -0.07964597 Ry
     correction to one-el term =     197.79998018 Ry

     iteration # 19     ecut=    50.00 Ry     beta= 0.70
     Davidson diagonalization with overlap
     ethr =  3.03E-10,  avg # of iterations =  2.0

     negative rho (up, down):  1.834E-04 0.000E+00

     add environment contribution to local potential
     Polarization accuracy = 9.0E-12, # of iterations =  37

     total cpu time spent up to now is     6411.7 secs

     total energy              =   -3432.59258202 Ry
     estimated scf accuracy    <       0.00000030 Ry
     electrostatic embedding   =      -0.02700048 Ry
     cavitation energy         =       0.02071898 Ry
     PV energy                 =      -0.07964622 Ry
     correction to one-el term =     197.82814996 Ry

     iteration # 20     ecut=    50.00 Ry     beta= 0.70
     Davidson diagonalization with overlap
     ethr =  8.12E-11,  avg # of iterations =  9.0

     negative rho (up, down):  1.775E-04 0.000E+00

     add environment contribution to local potential
     Polarization accuracy = 7.8E-12, # of iterations =  37

     total cpu time spent up to now is     6679.9 secs

     total energy              =   -3432.59258219 Ry
     estimated scf accuracy    <       0.00000014 Ry
     electrostatic embedding   =      -0.02700234 Ry
     cavitation energy         =       0.02072006 Ry
     PV energy                 =      -0.07964253 Ry
     correction to one-el term =     197.82475108 Ry

     iteration # 21     ecut=    50.00 Ry     beta= 0.70
     Davidson diagonalization with overlap
     ethr =  3.74E-11,  avg # of iterations =  1.0

     negative rho (up, down):  1.742E-04 0.000E+00

     add environment contribution to local potential
     Polarization accuracy = 7.4E-12, # of iterations =  37

     total cpu time spent up to now is     6918.6 secs

     total energy              =   -3432.59258230 Ry
     estimated scf accuracy    <       0.00000011 Ry
     electrostatic embedding   =      -0.02700699 Ry
     cavitation energy         =       0.02071984 Ry
     PV energy                 =      -0.07964145 Ry
     correction to one-el term =     197.82225815 Ry

     iteration # 22     ecut=    50.00 Ry     beta= 0.70
     Davidson diagonalization with overlap
     ethr =  2.96E-11,  avg # of iterations =  1.0

     negative rho (up, down):  1.655E-04 0.000E+00

     add environment contribution to local potential
     Polarization accuracy = 6.7E-12, # of iterations =  37

     total cpu time spent up to now is     7191.0 secs

     total energy              =   -3432.59258246 Ry
     estimated scf accuracy    <       0.00000009 Ry
     electrostatic embedding   =      -0.02700618 Ry
     cavitation energy         =       0.02072006 Ry
     PV energy                 =      -0.07964047 Ry
     correction to one-el term =     197.82078237 Ry

     iteration # 23     ecut=    50.00 Ry     beta= 0.70
     Davidson diagonalization with overlap
     ethr =  2.45E-11,  avg # of iterations =  1.0

     negative rho (up, down):  1.550E-04 0.000E+00

     add environment contribution to local potential
     Polarization accuracy = 6.1E-12, # of iterations =  37

     total cpu time spent up to now is     7490.8 secs

     total energy              =   -3432.59258267 Ry
     estimated scf accuracy    <       0.00000008 Ry
     electrostatic embedding   =      -0.02700741 Ry
     cavitation energy         =       0.02072026 Ry
     PV energy                 =      -0.07963974 Ry
     correction to one-el term =     197.81811991 Ry

     iteration # 24     ecut=    50.00 Ry     beta= 0.70
     Davidson diagonalization with overlap
     ethr =  2.22E-11,  avg # of iterations =  1.0

     negative rho (up, down):  1.534E-04 0.000E+00

     add environment contribution to local potential
     Polarization accuracy = 5.7E-12, # of iterations =  37

     total cpu time spent up to now is     7759.8 secs

     total energy              =   -3432.59258297 Ry
     estimated scf accuracy    <       0.00000008 Ry
     electrostatic embedding   =      -0.02700961 Ry
     cavitation energy         =       0.02072041 Ry
     PV energy                 =      -0.07963918 Ry
     correction to one-el term =     197.81531810 Ry

     iteration # 25     ecut=    50.00 Ry     beta= 0.70
     Davidson diagonalization with overlap
     ethr =  2.14E-11,  avg # of iterations =  1.0

     negative rho (up, down):  1.298E-04 0.000E+00

     add environment contribution to local potential
     Polarization accuracy = 4.4E-12, # of iterations =  37

     total cpu time spent up to now is     8056.8 secs

     total energy              =   -3432.59258346 Ry
     estimated scf accuracy    <       0.00000007 Ry
     electrostatic embedding   =      -0.02700793 Ry
     cavitation energy         =       0.02072061 Ry
     PV energy                 =      -0.07963897 Ry
     correction to one-el term =     197.81448714 Ry

     iteration # 26     ecut=    50.00 Ry     beta= 0.70
     Davidson diagonalization with overlap
     ethr =  1.94E-11,  avg # of iterations =  2.0

     negative rho (up, down):  1.212E-04 0.000E+00

     add environment contribution to local potential
     Polarization accuracy = 4.4E-12, # of iterations =  37

     total cpu time spent up to now is     8343.6 secs

     total energy              =   -3432.59258626 Ry
     estimated scf accuracy    <       0.00000005 Ry
     electrostatic embedding   =      -0.02700980 Ry
     cavitation energy         =       0.02072116 Ry
     PV energy                 =      -0.07963866 Ry
     correction to one-el term =     197.80968752 Ry

     iteration # 27     ecut=    50.00 Ry     beta= 0.70
     Davidson diagonalization with overlap
     ethr =  1.43E-11,  avg # of iterations =  2.0

     negative rho (up, down):  1.163E-04 0.000E+00

     add environment contribution to local potential
     Polarization accuracy = 3.2E-12, # of iterations =  37

     total cpu time spent up to now is     8626.2 secs

     total energy              =   -3432.59258887 Ry
     estimated scf accuracy    <       0.00000004 Ry
     electrostatic embedding   =      -0.02701113 Ry
     cavitation energy         =       0.02072127 Ry
     PV energy                 =      -0.07963899 Ry
     correction to one-el term =     197.80804677 Ry

     iteration # 28     ecut=    50.00 Ry     beta= 0.70
     Davidson diagonalization with overlap
     ethr =  9.77E-12,  avg # of iterations =  3.0

     negative rho (up, down):  1.335E-04 0.000E+00

     add environment contribution to local potential
     Polarization accuracy = 2.4E-12, # of iterations =  37

     total cpu time spent up to now is     8935.4 secs

     total energy              =   -3432.59259333 Ry
     estimated scf accuracy    <       0.00000002 Ry
     electrostatic embedding   =      -0.02701067 Ry
     cavitation energy         =       0.02072137 Ry
     PV energy                 =      -0.07963886 Ry
     correction to one-el term =     197.80762467 Ry

     iteration # 29     ecut=    50.00 Ry     beta= 0.70
     Davidson diagonalization with overlap
     ethr =  5.05E-12,  avg # of iterations =  5.0

     negative rho (up, down):  1.394E-04 0.000E+00

     add environment contribution to local potential
     Polarization accuracy = 2.1E-12, # of iterations =  37

     total cpu time spent up to now is     9229.6 secs

     total energy              =   -3432.59259763 Ry
     estimated scf accuracy    <          4.4E-09 Ry
     electrostatic embedding   =      -0.02701095 Ry
     cavitation energy         =       0.02072073 Ry
     PV energy                 =      -0.07963930 Ry
     correction to one-el term =     197.81271406 Ry

     iteration # 30     ecut=    50.00 Ry     beta= 0.70
     Davidson diagonalization with overlap
     ethr =  1.20E-12,  avg # of iterations =  2.0

     negative rho (up, down):  1.446E-04 0.000E+00

     add environment contribution to local potential
     Polarization accuracy = 1.3E-12, # of iterations =  37

     total cpu time spent up to now is    11494.9 secs

     total energy              =   -3432.59259819 Ry
     estimated scf accuracy    <          6.4E-09 Ry
     electrostatic embedding   =      -0.02701045 Ry
     cavitation energy         =       0.02072063 Ry
     PV energy                 =      -0.07963949 Ry
     correction to one-el term =     197.81369361 Ry

     iteration # 31     ecut=    50.00 Ry     beta= 0.70
     Davidson diagonalization with overlap
     ethr =  1.20E-12,  avg # of iterations =  2.0

     negative rho (up, down):  1.536E-04 0.000E+00

     the potential shift due to the Gaussian-smeared nuclei is    -1.3353 ev

     total cpu time spent up to now is    11770.8 secs

     End of self-consistent calculation

          k = 0.2500 0.2752 0.0000 ( 34780 PWs)   bands (ev):

   -78.6028 -78.5990 -78.5924 -78.5887 -78.1275 -78.1237 -78.1169 -78.1131
   -77.9411 -77.9371 -77.9218 -77.9185 -48.8338 -48.8289 -48.8234 -48.8184
   -48.6154 -48.6052 -48.5343 -48.5241 -48.4535 -48.4430 -48.4409 -48.4305
   -48.3910 -48.3863 -48.3851 -48.3806 -48.3804 -48.3757 -48.2028 -48.1988
   -48.0879 -48.0773 -48.0044 -47.9938 -47.9573 -47.9467 -47.9465 -47.9450
   -47.9345 -47.8657 -47.8117 -47.7561 -47.7445 -47.7418 -47.7283 -47.7204
   -24.5968 -24.4423 -24.3267 -24.0970 -24.0000 -23.9619 -23.7108 -23.5306
   -23.4464 -23.4194 -23.4141 -23.3521 -23.3500 -23.2517 -23.2358 -23.2257
   -23.1837 -23.1195 -23.0660 -23.0462 -22.9954 -22.9663 -22.8503 -22.8194
   -22.5516 -22.5102 -22.4055 -22.2325 -12.7335 -12.7216 -12.6662 -12.2257
   -12.1854 -12.1391 -12.1195 -11.9334 -11.8579 -11.8538 -11.7726 -11.7571
   -11.6866 -11.6803 -11.6588 -11.5096 -11.4297 -11.3592 -11.3548 -11.2862
   -11.1629 -11.1272 -10.8689 -10.8468 -10.7815 -10.7693 -10.5908 -10.4706
   -10.3997 -10.3133 -10.3095 -10.2674 -10.0379  -9.9552  -9.8542  -9.8401
    -9.8195  -9.7624  -9.6689  -9.5127  -9.4649  -9.4534  -9.3501  -9.1406
    -9.1116  -9.0372  -8.9165  -8.8897  -8.7764  -8.7535  -8.7159  -8.7108
    -8.6601  -8.6471  -8.4771  -8.4693  -8.4565  -8.3468  -8.3128  -8.2475
    -8.0973  -8.0972  -8.0671  -7.8330  -7.7983  -7.7412  -7.6863  -7.6074
    -7.5232  -7.4394  -7.3770  -7.2947  -7.2565  -7.1610  -7.1151  -7.1080
    -6.9812  -6.9784  -6.8794  -6.8695  -6.8229  -6.6835  -6.5565  -6.5371
    -5.5367  -5.5159  -5.4977  -5.4600  -5.4162  -5.3841  -5.3713  -5.3600
    -5.3326  -5.2583  -5.2223  -5.2128  -5.1322  -5.1303  -5.1196  -4.9583
    -4.9508  -4.8673  -4.8596  -4.6931  -4.6778  -4.6453  -4.4660  -4.3390
    -4.2885  -4.2802  -4.1047  -4.0817  -3.7931  -3.7727  -3.7466  -3.6513
    -3.5875  -3.5757  -3.3332  -3.2110  -3.0244  -2.4803  -2.3676  -2.2812
    -2.2416  -2.2007  -1.5315  -1.1818  -1.1566  -0.8984  -0.6645  -0.6089
    -0.5611  -0.5317  -0.5308  -0.5211  -0.1472  -0.0204  -0.0058   0.4031
     0.4606   0.4729

     the Fermi energy is    -4.5614 ev

!    total energy              =   -3432.59259904 Ry
     estimated scf accuracy    <          7.8E-10 Ry
     smearing contrib. (-TS)   =       0.05944995 Ry
     internal energy E=F+TS    =   -3432.65204899 Ry

     The total energy is F=E-TS. E is the sum of the following terms:
     one-electron contribution =  -25690.50222588 Ry
     hartree contribution      =   12820.75615978 Ry
     xc contribution           =    -446.32027587 Ry
     ewald contribution        =    9952.25363363 Ry
     one-center paw contrib.   =    -266.56802869 Ry
     electrostatic embedding   =      -0.02701030 Ry
     cavitation energy         =       0.02072052 Ry
     PV energy                 =      -0.07963942 Ry
     correction to one-el term =     197.81461723 Ry

     WARNING: you are using the parabolic pbc correction;
              the potential shift above must be added to 
              band and Fermi energies.

     convergence has been achieved in  31 iterations

     negative rho (up, down):  1.536E-04 0.000E+00

     Forces acting on atoms (cartesian axes, Ry/au):

     atom    1 type  1   force =     0.03095819    0.00000000   -0.02234377
     atom    2 type  1   force =     0.03095637    0.00000000   -0.02234393
     atom    3 type  1   force =     0.00015568    0.00000000   -0.00404801
     atom    4 type  1   force =     0.00015544    0.00000000   -0.00404775
     atom    5 type  2   force =    -0.00013505    0.00000000   -0.00550192
     atom    6 type  2   force =    -0.00013509    0.00000000   -0.00550202
     atom    7 type  1   force =    -0.00075944    0.05208183    0.00306843
     atom    8 type  1   force =    -0.00075895    0.05208287    0.00306835
     atom    9 type  2   force =     0.00889078    0.00000000    0.00520003
     atom   10 type  2   force =     0.00889024    0.00000000    0.00519901
     atom   11 type  1   force =    -0.00075944   -0.05208183    0.00306843
     atom   12 type  1   force =    -0.00075895   -0.05208287    0.00306835
     atom   13 type  1   force =     0.00039374    0.00000000   -0.00477576
     atom   14 type  1   force =     0.00039334    0.00000000   -0.00477709
     atom   15 type  1   force =    -0.00691166    0.00000000    0.01115862
     atom   16 type  1   force =    -0.00691232    0.00000000    0.01116593
     atom   17 type  2   force =     0.00148922    0.00000000    0.00000000
     atom   18 type  2   force =     0.00149541    0.00000000    0.00000000
     atom   19 type  1   force =    -0.00135480   -0.06629666    0.00000000
     atom   20 type  1   force =    -0.00135093   -0.06628963    0.00000000
     atom   21 type  2   force =     0.00581116    0.00000000    0.00000000
     atom   22 type  2   force =     0.00581790    0.00000000    0.00000000
     atom   23 type  1   force =    -0.00135480    0.06629666    0.00000000
     atom   24 type  1   force =    -0.00135093    0.06628963    0.00000000
     atom   25 type  1   force =    -0.00691166    0.00000000   -0.01115862
     atom   26 type  1   force =    -0.00691232    0.00000000   -0.01116593
     atom   27 type  1   force =     0.00039374    0.00000000    0.00477576
     atom   28 type  1   force =     0.00039334    0.00000000    0.00477709
     atom   29 type  2   force =    -0.00013505    0.00000000    0.00550192
     atom   30 type  2   force =    -0.00013509    0.00000000    0.00550202
     atom   31 type  1   force =    -0.00075944    0.05208183   -0.00306843
     atom   32 type  1   force =    -0.00075895    0.05208287   -0.00306835
     atom   33 type  2   force =     0.00889078    0.00000000   -0.00520003
     atom   34 type  2   force =     0.00889024    0.00000000   -0.00519901
     atom   35 type  1   force =    -0.00075944   -0.05208183   -0.00306843
     atom   36 type  1   force =    -0.00075895   -0.05208287   -0.00306835
     atom   37 type  1   force =     0.00015568    0.00000000    0.00404801
     atom   38 type  1   force =     0.00015544    0.00000000    0.00404775
     atom   39 type  1   force =     0.03095819    0.00000000    0.02234377
     atom   40 type  1   force =     0.03095637    0.00000000    0.02234393
     atom   41 type  3   force =    -0.03413261    0.00000000    0.01408283
     atom   42 type  3   force =    -0.03413261    0.00000000   -0.01408283
     atom   43 type  3   force =    -0.03413139    0.00000000    0.01408195
     atom   44 type  3   force =    -0.03413139    0.00000000   -0.01408195
     The non-local contrib.  to forces
     atom    1 type  1   force =     1.73771796    0.00000000    0.33712716
     atom    2 type  1   force =     1.73771657    0.00000000    0.33713043
     atom    3 type  1   force =     0.00607957    0.00000000    1.05952677
     atom    4 type  1   force =     0.00607948    0.00000000    1.05952618
     atom    5 type  2   force =     0.00062013    0.00000000   -0.05100414
     atom    6 type  2   force =     0.00061944    0.00000000   -0.05100364
     atom    7 type  1   force =     0.00823170   -0.08644767    0.00600821
     atom    8 type  1   force =     0.00823123   -0.08644468    0.00600993
     atom    9 type  2   force =     0.00037137    0.00000000    0.01952937
     atom   10 type  2   force =     0.00037062    0.00000000    0.01952555
     atom   11 type  1   force =     0.00823170    0.08644767    0.00600821
     atom   12 type  1   force =     0.00823123    0.08644468    0.00600993
     atom   13 type  1   force =     0.01368656    0.00000000    0.07797625
     atom   14 type  1   force =     0.01368204    0.00000000    0.07797710
     atom   15 type  1   force =     0.00487490    0.00000000   -0.01024182
     atom   16 type  1   force =     0.00488147    0.00000000   -0.01022139
     atom   17 type  2   force =    -0.00114029    0.00000000    0.00000000
     atom   18 type  2   force =    -0.00114299    0.00000000    0.00000000
     atom   19 type  1   force =     0.01195429    0.05295751    0.00000000
     atom   20 type  1   force =     0.01194375    0.05296756    0.00000000
     atom   21 type  2   force =     0.03004848    0.00000000    0.00000000
     atom   22 type  2   force =     0.03004495    0.00000000    0.00000000
     atom   23 type  1   force =     0.01195429   -0.05295751    0.00000000
     atom   24 type  1   force =     0.01194375   -0.05296756    0.00000000
     atom   25 type  1   force =     0.00487490    0.00000000    0.01024182
     atom   26 type  1   force =     0.00488147    0.00000000    0.01022139
     atom   27 type  1   force =     0.01368656    0.00000000   -0.07797625
     atom   28 type  1   force =     0.01368204    0.00000000   -0.07797710
     atom   29 type  2   force =     0.00062013    0.00000000    0.05100414
     atom   30 type  2   force =     0.00061944    0.00000000    0.05100364
     atom   31 type  1   force =     0.00823170   -0.08644767   -0.00600821
     atom   32 type  1   force =     0.00823123   -0.08644468   -0.00600993
     atom   33 type  2   force =     0.00037137    0.00000000   -0.01952937
     atom   34 type  2   force =     0.00037062    0.00000000   -0.01952555
     atom   35 type  1   force =     0.00823170    0.08644767   -0.00600821
     atom   36 type  1   force =     0.00823123    0.08644468   -0.00600993
     atom   37 type  1   force =     0.00607957    0.00000000   -1.05952677
     atom   38 type  1   force =     0.00607948    0.00000000   -1.05952618
     atom   39 type  1   force =     1.73771796    0.00000000   -0.33712716
     atom   40 type  1   force =     1.73771657    0.00000000   -0.33713043
     atom   41 type  3   force =    -0.08916130    0.00000000    0.04384989
     atom   42 type  3   force =    -0.08916130    0.00000000   -0.04384989
     atom   43 type  3   force =    -0.08916168    0.00000000    0.04384987
     atom   44 type  3   force =    -0.08916168    0.00000000   -0.04384987
     The ionic contribution  to forces
     atom    1 type  1   force =    -2.67967493    0.00000014  -97.00963050
     atom    2 type  1   force =    -2.67969939    0.00000014  -97.00965588
     atom    3 type  1   force =    -0.03466633   -0.00000030  -94.60690200
     atom    4 type  1   force =    -0.03466471   -0.00000030  -94.60689472
     atom    5 type  2   force =     0.13904213   -0.00000213 -176.72131802
     atom    6 type  2   force =     0.13908548   -0.00000213 -176.72122379
     atom    7 type  1   force =    -0.07314513    0.08141221  -64.19654178
     atom    8 type  1   force =    -0.07311035    0.08140509  -64.19655074
     atom    9 type  2   force =    -0.01454745    0.00000298 -170.93345404
     atom   10 type  2   force =    -0.01460244    0.00000298 -170.93423638
     atom   11 type  1   force =    -0.07314512   -0.08141170  -64.19653952
     atom   12 type  1   force =    -0.07311035   -0.08140458  -64.19654847
     atom   13 type  1   force =    -0.10306438   -0.00000172  -38.81654830
     atom   14 type  1   force =    -0.10302228   -0.00000172  -38.81656882
     atom   15 type  1   force =    -0.27173295    0.00000922  -25.62997838
     atom   16 type  1   force =    -0.27169751    0.00000922  -25.63021545
     atom   17 type  2   force =     0.11756578    0.00001275   -0.00044165
     atom   18 type  2   force =     0.11765709    0.00001275   -0.00044165
     atom   19 type  1   force =    -0.01988508   -1.05225987   -0.00007666
     atom   20 type  1   force =    -0.01975302   -1.05216469   -0.00007666
     atom   21 type  2   force =     0.83070291    0.00012145   -0.00025246
     atom   22 type  2   force =     0.83072855    0.00012145   -0.00025246
     atom   23 type  1   force =    -0.01988583    1.05210824   -0.00007666
     atom   24 type  1   force =    -0.01975376    1.05201307   -0.00007666
     atom   25 type  1   force =    -0.27175077    0.00000922   25.62978132
     atom   26 type  1   force =    -0.27171532    0.00000922   25.63001840
     atom   27 type  1   force =    -0.10306580   -0.00000172   38.81686604
     atom   28 type  1   force =    -0.10302370   -0.00000172   38.81688657
     atom   29 type  2   force =     0.13904183   -0.00000213  176.72152492
     atom   30 type  2   force =     0.13908518   -0.00000213  176.72143068
     atom   31 type  1   force =    -0.07314427    0.08137772   64.19660016
     atom   32 type  1   force =    -0.07310949    0.08137060   64.19660911
     atom   33 type  2   force =    -0.01455258    0.00000298  170.93357244
     atom   34 type  2   force =    -0.01460757    0.00000298  170.93435478
     atom   35 type  1   force =    -0.07314426   -0.08137721   64.19659789
     atom   36 type  1   force =    -0.07310949   -0.08137009   64.19660684
     atom   37 type  1   force =    -0.03466557   -0.00000030   94.60706351
     atom   38 type  1   force =    -0.03466395   -0.00000030   94.60705623
     atom   39 type  1   force =    -2.67975546    0.00000014   97.00972871
     atom   40 type  1   force =    -2.67977992    0.00000014   97.00975409
     atom   41 type  3   force =     2.65653473    0.00000001  -16.56113575
     atom   42 type  3   force =     2.65661933    0.00000001   16.56116071
     atom   43 type  3   force =     2.65655079    0.00000001  -16.56113184
     atom   44 type  3   force =     2.65663539    0.00000001   16.56115680
     The local contribution  to forces
     atom    1 type  1   force =     0.96382997    0.00000000   96.67046866
     atom    2 type  1   force =     0.96385350   -0.00000000   96.67049340
     atom    3 type  1   force =     0.02588325    0.00000000   93.51900957
     atom    4 type  1   force =     0.02588284    0.00000000   93.51900552
     atom    5 type  2   force =    -0.13822566   -0.00000000  176.75046327
     atom    6 type  2   force =    -0.13827930    0.00000000  176.75036985
     atom    7 type  1   force =     0.06516221    0.05131492   64.19653064
     atom    8 type  1   force =     0.06512062    0.05131974   64.19653882
     atom    9 type  2   force =     0.02047219   -0.00000000  170.93040572
     atom   10 type  2   force =     0.02053121    0.00000000  170.93119519
     atom   11 type  1   force =     0.06516221   -0.05131492   64.19653064
     atom   12 type  1   force =     0.06512062   -0.05131974   64.19653882
     atom   13 type  1   force =     0.08984297   -0.00000000   38.73168452
     atom   14 type  1   force =     0.08980740   -0.00000000   38.73171792
     atom   15 type  1   force =     0.25992490    0.00000000   25.65162856
     atom   16 type  1   force =     0.25988918   -0.00000000   25.65185335
     atom   17 type  2   force =    -0.11494988    0.00000000   -0.00585963
     atom   18 type  2   force =    -0.11502392    0.00000000   -0.00585964
     atom   19 type  1   force =     0.00672423    0.93160035   -0.00247897
     atom   20 type  1   force =     0.00657670    0.93150690   -0.00247897
     atom   21 type  2   force =    -0.85491499   -0.00000000   -0.00608053
     atom   22 type  2   force =    -0.85495775    0.00000000   -0.00608053
     atom   23 type  1   force =     0.00672484   -0.93193918   -0.00247897
     atom   24 type  1   force =     0.00657730   -0.93184573   -0.00247897
     atom   25 type  1   force =     0.25989921    0.00000000  -25.65337803
     atom   26 type  1   force =     0.25986348    0.00000000  -25.65360282
     atom   27 type  1   force =     0.08984408   -0.00000000  -38.73343227
     atom   28 type  1   force =     0.08980851    0.00000000  -38.73346566
     atom   29 type  2   force =    -0.13822372    0.00000000 -176.75662900
     atom   30 type  2   force =    -0.13827736   -0.00000000 -176.75653558
     atom   31 type  1   force =     0.06516442    0.05129681  -64.19900624
     atom   32 type  1   force =     0.06512282    0.05130163  -64.19901442
     atom   33 type  2   force =     0.02045862   -0.00000000 -170.93621387
     atom   34 type  2   force =     0.02051764    0.00000000 -170.93700334
     atom   35 type  1   force =     0.06516442   -0.05129681  -64.19900624
     atom   36 type  1   force =     0.06512282   -0.05130163  -64.19901442
     atom   37 type  1   force =     0.02588149   -0.00000000  -93.52294658
     atom   38 type  1   force =     0.02588108    0.00000000  -93.52294252
     atom   39 type  1   force =     0.96385395   -0.00000000  -96.67199815
     atom   40 type  1   force =     0.96387749   -0.00000000  -96.67202290
     atom   41 type  3   force =    -2.61292316   -0.00000000   16.55106049
     atom   42 type  3   force =    -2.61292316    0.00000000  -16.55106049
     atom   43 type  3   force =    -2.61293818   -0.00000000   16.55105604
     atom   44 type  3   force =    -2.61293818    0.00000000  -16.55105604
     The core correction contribution to forces
     atom    1 type  1   force =    -0.01793702   -0.00000000   -0.00328002
     atom    2 type  1   force =    -0.01793698   -0.00000000   -0.00328005
     atom    3 type  1   force =    -0.00006582    0.00000000   -0.01082051
     atom    4 type  1   force =    -0.00006583    0.00000000   -0.01082050
     atom    5 type  2   force =     0.00000000    0.00000000    0.00000000
     atom    6 type  2   force =     0.00000000    0.00000000    0.00000000
     atom    7 type  1   force =    -0.00004790   -0.00004774   -0.00015538
     atom    8 type  1   force =    -0.00004789   -0.00004778   -0.00015540
     atom    9 type  2   force =     0.00000000    0.00000000    0.00000000
     atom   10 type  2   force =     0.00000000    0.00000000    0.00000000
     atom   11 type  1   force =    -0.00004790    0.00004774   -0.00015538
     atom   12 type  1   force =    -0.00004789    0.00004778   -0.00015540
     atom   13 type  1   force =    -0.00013488    0.00000000   -0.00055579
     atom   14 type  1   force =    -0.00013484   -0.00000000   -0.00055582
     atom   15 type  1   force =     0.00001291    0.00000000   -0.00045789
     atom   16 type  1   force =     0.00001282    0.00000000   -0.00045820
     atom   17 type  2   force =     0.00000000    0.00000000    0.00000000
     atom   18 type  2   force =     0.00000000    0.00000000    0.00000000
     atom   19 type  1   force =    -0.00012915    0.00071585   -0.00000222
     atom   20 type  1   force =    -0.00012903    0.00071566   -0.00000222
     atom   21 type  2   force =     0.00000000    0.00000000    0.00000000
     atom   22 type  2   force =     0.00000000    0.00000000    0.00000000
     atom   23 type  1   force =    -0.00012915   -0.00071631   -0.00000222
     atom   24 type  1   force =    -0.00012904   -0.00071613   -0.00000222
     atom   25 type  1   force =     0.00001288   -0.00000000    0.00045580
     atom   26 type  1   force =     0.00001279   -0.00000000    0.00045610
     atom   27 type  1   force =    -0.00013488   -0.00000000    0.00055343
     atom   28 type  1   force =    -0.00013484    0.00000000    0.00055345
     atom   29 type  2   force =     0.00000000    0.00000000    0.00000000
     atom   30 type  2   force =     0.00000000    0.00000000    0.00000000
     atom   31 type  1   force =    -0.00004788   -0.00004787    0.00015341
     atom   32 type  1   force =    -0.00004786   -0.00004791    0.00015343
     atom   33 type  2   force =     0.00000000    0.00000000    0.00000000
     atom   34 type  2   force =     0.00000000    0.00000000    0.00000000
     atom   35 type  1   force =    -0.00004788    0.00004787    0.00015341
     atom   36 type  1   force =    -0.00004786    0.00004791    0.00015343
     atom   37 type  1   force =    -0.00006581    0.00000000    0.01081569
     atom   38 type  1   force =    -0.00006581   -0.00000000    0.01081569
     atom   39 type  1   force =    -0.01793789    0.00000000    0.00327779
     atom   40 type  1   force =    -0.01793785   -0.00000000    0.00327782
     atom   41 type  3   force =     0.00000000    0.00000000    0.00000000
     atom   42 type  3   force =     0.00000000    0.00000000    0.00000000
     atom   43 type  3   force =     0.00000000    0.00000000    0.00000000
     atom   44 type  3   force =     0.00000000    0.00000000    0.00000000
     The Hubbard contrib.    to forces
     atom    1 type  1   force =     0.00000000    0.00000000    0.00000000
     atom    2 type  1   force =     0.00000000    0.00000000    0.00000000
     atom    3 type  1   force =     0.00000000    0.00000000    0.00000000
     atom    4 type  1   force =     0.00000000    0.00000000    0.00000000
     atom    5 type  2   force =     0.00000000    0.00000000    0.00000000
     atom    6 type  2   force =     0.00000000    0.00000000    0.00000000
     atom    7 type  1   force =     0.00000000    0.00000000    0.00000000
     atom    8 type  1   force =     0.00000000    0.00000000    0.00000000
     atom    9 type  2   force =     0.00000000    0.00000000    0.00000000
     atom   10 type  2   force =     0.00000000    0.00000000    0.00000000
     atom   11 type  1   force =     0.00000000    0.00000000    0.00000000
     atom   12 type  1   force =     0.00000000    0.00000000    0.00000000
     atom   13 type  1   force =     0.00000000    0.00000000    0.00000000
     atom   14 type  1   force =     0.00000000    0.00000000    0.00000000
     atom   15 type  1   force =     0.00000000    0.00000000    0.00000000
     atom   16 type  1   force =     0.00000000    0.00000000    0.00000000
     atom   17 type  2   force =     0.00000000    0.00000000    0.00000000
     atom   18 type  2   force =     0.00000000    0.00000000    0.00000000
     atom   19 type  1   force =     0.00000000    0.00000000    0.00000000
     atom   20 type  1   force =     0.00000000    0.00000000    0.00000000
     atom   21 type  2   force =     0.00000000    0.00000000    0.00000000
     atom   22 type  2   force =     0.00000000    0.00000000    0.00000000
     atom   23 type  1   force =     0.00000000    0.00000000    0.00000000
     atom   24 type  1   force =     0.00000000    0.00000000    0.00000000
     atom   25 type  1   force =     0.00000000    0.00000000    0.00000000
     atom   26 type  1   force =     0.00000000    0.00000000    0.00000000
     atom   27 type  1   force =     0.00000000    0.00000000    0.00000000
     atom   28 type  1   force =     0.00000000    0.00000000    0.00000000
     atom   29 type  2   force =     0.00000000    0.00000000    0.00000000
     atom   30 type  2   force =     0.00000000    0.00000000    0.00000000
     atom   31 type  1   force =     0.00000000    0.00000000    0.00000000
     atom   32 type  1   force =     0.00000000    0.00000000    0.00000000
     atom   33 type  2   force =     0.00000000    0.00000000    0.00000000
     atom   34 type  2   force =     0.00000000    0.00000000    0.00000000
     atom   35 type  1   force =     0.00000000    0.00000000    0.00000000
     atom   36 type  1   force =     0.00000000    0.00000000    0.00000000
     atom   37 type  1   force =     0.00000000    0.00000000    0.00000000
     atom   38 type  1   force =     0.00000000    0.00000000    0.00000000
     atom   39 type  1   force =     0.00000000    0.00000000    0.00000000
     atom   40 type  1   force =     0.00000000    0.00000000    0.00000000
     atom   41 type  3   force =     0.00000000    0.00000000    0.00000000
     atom   42 type  3   force =     0.00000000    0.00000000    0.00000000
     atom   43 type  3   force =     0.00000000    0.00000000    0.00000000
     atom   44 type  3   force =     0.00000000    0.00000000    0.00000000
     The SCF correction term to forces
     atom    1 type  1   force =    -0.00000473   -0.00000003   -0.00001160
     atom    2 type  1   force =    -0.00000456   -0.00000003   -0.00001451
     atom    3 type  1   force =    -0.00000038    0.00000006   -0.00001519
     atom    4 type  1   force =    -0.00000160    0.00000006   -0.00001736
     atom    5 type  2   force =    -0.00000443    0.00000035   -0.00003461
     atom    6 type  2   force =     0.00000671    0.00000035   -0.00003618
     atom    7 type  1   force =    -0.00000314    0.00000951   -0.00001455
     atom    8 type  1   force =     0.00000467    0.00000988   -0.00001560
     atom    9 type  2   force =     0.00000009   -0.00000036   -0.00004544
     atom   10 type  2   force =    -0.00000368   -0.00000036   -0.00004956
     atom   11 type  1   force =    -0.00000314   -0.00000962   -0.00001471
     atom   12 type  1   force =     0.00000467   -0.00000999   -0.00001576
     atom   13 type  1   force =     0.00000105    0.00000028   -0.00000061
     atom   14 type  1   force =    -0.00000138    0.00000028   -0.00001561
     atom   15 type  1   force =     0.00000291   -0.00000036   -0.00000142
     atom   16 type  1   force =    -0.00000394   -0.00000036   -0.00000193
     atom   17 type  2   force =     0.00000419    0.00000133    0.00003627
     atom   18 type  2   force =    -0.00000418    0.00000133    0.00003627
     atom   19 type  1   force =    -0.00001477    0.00000575    0.00001306
     atom   20 type  1   force =     0.00001500    0.00000117    0.00001306
     atom   21 type  2   force =    -0.00001251   -0.00000130    0.00003782
     atom   22 type  2   force =     0.00001489   -0.00000130    0.00003783
     atom   23 type  1   force =    -0.00001477   -0.00000542    0.00001306
     atom   24 type  1   force =     0.00001500   -0.00000084    0.00001306
     atom   25 type  1   force =     0.00000292   -0.00000036    0.00001463
     atom   26 type  1   force =    -0.00000393   -0.00000036    0.00001514
     atom   27 type  1   force =     0.00000107    0.00000028    0.00000151
     atom   28 type  1   force =    -0.00000137    0.00000028    0.00001651
     atom   29 type  2   force =    -0.00000446    0.00000035    0.00001130
     atom   30 type  2   force =     0.00000668    0.00000035    0.00001287
     atom   31 type  1   force =    -0.00000319    0.00000856    0.00000552
     atom   32 type  1   force =     0.00000462    0.00000893    0.00000657
     atom   33 type  2   force =     0.00000029   -0.00000036    0.00001748
     atom   34 type  2   force =    -0.00000348   -0.00000036    0.00002161
     atom   35 type  1   force =    -0.00000319   -0.00000867    0.00000568
     atom   36 type  1   force =     0.00000462   -0.00000904    0.00000673
     atom   37 type  1   force =    -0.00000038    0.00000006    0.00001138
     atom   38 type  1   force =    -0.00000160    0.00000006    0.00001356
     atom   39 type  1   force =    -0.00000462   -0.00000003    0.00001316
     atom   40 type  1   force =    -0.00000446   -0.00000002    0.00001607
     atom   41 type  3   force =    -0.00000044   -0.00000000   -0.00000197
     atom   42 type  3   force =    -0.00000051   -0.00000000    0.00000188
     atom   43 type  3   force =     0.00000001   -0.00000000   -0.00000226
     atom   44 type  3   force =    -0.00000005   -0.00000000    0.00000217

     Total force =     0.228287     Total SCF correction =     0.000143

     BFGS Geometry Optimization
     Energy error            =      0.0E+00 Ry
     Gradient error          =      6.6E-02 Ry/Bohr

     number of scf cycles    =   1
     number of bfgs steps    =   0

     energy             new  =   -3432.5925990444 Ry

     new trust radius        =       0.0663105047 bohr
     new conv_thr            =       0.0000000010 Ry


ATOMIC_POSITIONS (crystal)
O            -0.0069132104        0.5000000000        0.2706969903
O             0.4930867517        0.5000000000        0.2706966094
O            -0.0013494768        0.0000000000        0.3072510748
O             0.4986505446        0.0000000000        0.3072510947
Ru            0.2484489286        0.0000000000        0.3541697872
Ru            0.7484489596        0.0000000000        0.3541698138
O             0.2474437030        0.3135560718        0.3576148394
O             0.7474437964        0.3135560348        0.3576148167
Ru           -0.0026282270        0.5000000000        0.3576254185
Ru            0.4973719443        0.5000000000        0.3576249376
O             0.2474437030        0.6864439282        0.3576148394
O             0.7474437964        0.6864439652        0.3576148167
O            -0.0007050357        0.0000000000        0.4122931618
O             0.4992945883        0.0000000000        0.4122931321
O             0.0058513437        0.5000000000        0.4448011625
O             0.5058513616        0.5000000000        0.4448004881
Ru            0.0009213845        0.0000000000        0.5000010000
Ru            0.5009212151        0.0000000000        0.5000010000
O             0.2510891054        0.1877201105        0.5000010000
O             0.7510889768        0.1877198102        0.5000010000
Ru            0.2522194592        0.5000000000        0.5000010000
Ru            0.7522179091        0.5000000000        0.5000010000
O             0.2510891054        0.8122808895        0.5000010000
O             0.7510889768        0.8122811898        0.5000010000
O             0.0058513437        0.5000000000        0.5551998375
O             0.5058513616        0.5000000000        0.5552005119
O            -0.0007050357        0.0000000000        0.5877078382
O             0.4992945883        0.0000000000        0.5877078679
Ru            0.2484489286        0.0000000000        0.6458312128
Ru            0.7484489596        0.0000000000        0.6458311862
O             0.2474437030        0.3135560718        0.6423861606
O             0.7474437964        0.3135560348        0.6423861833
Ru           -0.0026282270        0.5000000000        0.6423755815
Ru            0.4973719443        0.5000000000        0.6423760624
O             0.2474437030        0.6864439282        0.6423861606
O             0.7474437964        0.6864439652        0.6423861833
O            -0.0013494768        0.0000000000        0.6927509252
O             0.4986505446        0.0000000000        0.6927509053
O            -0.0069132104        0.5000000000        0.7293040097
O             0.4930867517        0.5000000000        0.7293043906
H             0.1273841422        0.5000000000        0.2528056027
H             0.1273841422        0.5000000000        0.7471943973
H             0.6273843202        0.5000000000        0.2528052895
H             0.6273843202        0.5000000000        0.7471947105



     Writing config-only to output data dir /storage/home/mgm6007/ixd4/Maria/StrainJin_Files/RuO2-110-0-01/RuO2-110-0-01.save/
     NEW-OLD atomic charge density approx. for the potential

     Check: negative core charge=   -0.000001

     negative rho (up, down):  1.492E-04 0.000E+00

     add environment contribution to local potential
     Polarization accuracy = 1.3E-12, # of iterations =  37

     total cpu time spent up to now is    12060.7 secs

     per-process dynamical memory:   202.8 Mb

     Self-consistent Calculation

     iteration #  1     ecut=    50.00 Ry     beta= 0.70
     Davidson diagonalization with overlap
     ethr =  1.00E-06,  avg # of iterations = 12.0

     negative rho (up, down):  8.292E-04 0.000E+00

     add environment contribution to local potential
     Polarization accuracy = 2.0E-12, # of iterations =  37

     total cpu time spent up to now is    12356.2 secs

     total energy              =   -3432.61035533 Ry
     estimated scf accuracy    <       0.05468742 Ry
     electrostatic embedding   =      -0.02813448 Ry
     cavitation energy         =       0.02080261 Ry
     PV energy                 =      -0.07959801 Ry
     correction to one-el term =     197.55058003 Ry

     iteration #  2     ecut=    50.00 Ry     beta= 0.70
     Davidson diagonalization with overlap
     ethr =  1.50E-05,  avg # of iterations =  2.0

     negative rho (up, down):  1.104E-03 0.000E+00

     add environment contribution to local potential
     Polarization accuracy = 2.1E-12, # of iterations =  38

     total cpu time spent up to now is    12669.5 secs

     total energy              =   -3432.61484288 Ry
     estimated scf accuracy    <       0.05240048 Ry
     electrostatic embedding   =      -0.02820806 Ry
     cavitation energy         =       0.02080370 Ry
     PV energy                 =      -0.07952213 Ry
     correction to one-el term =     197.76258298 Ry

     iteration #  3     ecut=    50.00 Ry     beta= 0.70
     Davidson diagonalization with overlap
     ethr =  1.44E-05,  avg # of iterations =  1.0

     negative rho (up, down):  1.656E-03 0.000E+00

     add environment contribution to local potential
     Polarization accuracy = 2.0E-12, # of iterations =  37

     total cpu time spent up to now is    12966.5 secs

     total energy              =   -3432.61786204 Ry
     estimated scf accuracy    <       0.00776287 Ry
     electrostatic embedding   =      -0.02785171 Ry
     cavitation energy         =       0.02079232 Ry
     PV energy                 =      -0.07954440 Ry
     correction to one-el term =     197.78388432 Ry

     iteration #  4     ecut=    50.00 Ry     beta= 0.70
     Davidson diagonalization with overlap
     ethr =  2.13E-06,  avg # of iterations =  1.0

     negative rho (up, down):  2.503E-03 0.000E+00

     add environment contribution to local potential
     Polarization accuracy = 3.0E-12, # of iterations =  37

     total cpu time spent up to now is    13248.2 secs

     total energy              =   -3432.61806991 Ry
     estimated scf accuracy    <       0.00142675 Ry
     electrostatic embedding   =      -0.02752462 Ry
     cavitation energy         =       0.02079125 Ry
     PV energy                 =      -0.07954495 Ry
     correction to one-el term =     197.88785204 Ry

     iteration #  5     ecut=    50.00 Ry     beta= 0.70
     Davidson diagonalization with overlap
     ethr =  3.92E-07,  avg # of iterations =  1.0

     negative rho (up, down):  2.703E-03 0.000E+00

     add environment contribution to local potential
     Polarization accuracy = 2.0E-12, # of iterations =  37

     total cpu time spent up to now is    13459.1 secs

     total energy              =   -3432.61814732 Ry
     estimated scf accuracy    <       0.00051283 Ry
     electrostatic embedding   =      -0.02694901 Ry
     cavitation energy         =       0.02078784 Ry
     PV energy                 =      -0.07954595 Ry
     correction to one-el term =     198.06607730 Ry

     iteration #  6     ecut=    50.00 Ry     beta= 0.70
     Davidson diagonalization with overlap
     ethr =  1.41E-07,  avg # of iterations =  1.0

     negative rho (up, down):  2.672E-03 0.000E+00

     add environment contribution to local potential
     Polarization accuracy = 1.6E-12, # of iterations =  37

     total cpu time spent up to now is    13595.6 secs

     total energy              =   -3432.61815912 Ry
     estimated scf accuracy    <       0.00029319 Ry
     electrostatic embedding   =      -0.02664676 Ry
     cavitation energy         =       0.02078626 Ry
     PV energy                 =      -0.07955612 Ry
     correction to one-el term =     198.14268075 Ry

     iteration #  7     ecut=    50.00 Ry     beta= 0.70
     Davidson diagonalization with overlap
     ethr =  8.05E-08,  avg # of iterations =  1.0

     negative rho (up, down):  2.402E-03 0.000E+00

     add environment contribution to local potential
     Polarization accuracy = 1.3E-12, # of iterations =  37

     total cpu time spent up to now is    13729.5 secs

     total energy              =   -3432.61815912 Ry
     estimated scf accuracy    <       0.00007761 Ry
     electrostatic embedding   =      -0.02628522 Ry
     cavitation energy         =       0.02078675 Ry
     PV energy                 =      -0.07957479 Ry
     correction to one-el term =     198.22240774 Ry

     iteration #  8     ecut=    50.00 Ry     beta= 0.70
     Davidson diagonalization with overlap
     ethr =  2.13E-08,  avg # of iterations =  2.0

     negative rho (up, down):  1.683E-03 0.000E+00

     add environment contribution to local potential
     Polarization accuracy = 1.0E-12, # of iterations =  37

     total cpu time spent up to now is    14030.8 secs

     total energy              =   -3432.61815374 Ry
     estimated scf accuracy    <       0.00002936 Ry
     electrostatic embedding   =      -0.02598149 Ry
     cavitation energy         =       0.02078722 Ry
     PV energy                 =      -0.07959443 Ry
     correction to one-el term =     198.27533300 Ry

     iteration #  9     ecut=    50.00 Ry     beta= 0.70
     Davidson diagonalization with overlap
     ethr =  8.07E-09,  avg # of iterations =  2.0

     negative rho (up, down):  1.259E-03 0.000E+00

     add environment contribution to local potential
     Polarization accuracy = 8.9E-13, # of iterations =  37

     total cpu time spent up to now is    14174.2 secs

     total energy              =   -3432.61815027 Ry
     estimated scf accuracy    <       0.00000723 Ry
     electrostatic embedding   =      -0.02572439 Ry
     cavitation energy         =       0.02078946 Ry
     PV energy                 =      -0.07961622 Ry
     correction to one-el term =     198.29898928 Ry

     iteration # 10     ecut=    50.00 Ry     beta= 0.70
     Davidson diagonalization with overlap
     ethr =  1.99E-09,  avg # of iterations =  1.0

     negative rho (up, down):  8.399E-04 0.000E+00

     add environment contribution to local potential
     Polarization accuracy = 9.6E-12, # of iterations =  36

     total cpu time spent up to now is    14787.1 secs

     total energy              =   -3432.61814671 Ry
     estimated scf accuracy    <       0.00000394 Ry
     electrostatic embedding   =      -0.02575138 Ry
     cavitation energy         =       0.02079067 Ry
     PV energy                 =      -0.07961961 Ry
     correction to one-el term =     198.27196925 Ry

     iteration # 11     ecut=    50.00 Ry     beta= 0.70
     Davidson diagonalization with overlap
     ethr =  1.08E-09,  avg # of iterations =  1.0

     negative rho (up, down):  4.493E-04 0.000E+00

     add environment contribution to local potential
     Polarization accuracy = 9.1E-12, # of iterations =  36

     total cpu time spent up to now is    14923.7 secs

     total energy              =   -3432.61814507 Ry
     estimated scf accuracy    <       0.00000212 Ry
     electrostatic embedding   =      -0.02578353 Ry
     cavitation energy         =       0.02079177 Ry
     PV energy                 =      -0.07962203 Ry
     correction to one-el term =     198.24403124 Ry

     iteration # 12     ecut=    50.00 Ry     beta= 0.70
     Davidson diagonalization with overlap
     ethr =  5.82E-10,  avg # of iterations =  2.0

     negative rho (up, down):  3.089E-04 0.000E+00

     add environment contribution to local potential
     Polarization accuracy = 9.1E-12, # of iterations =  36

     total cpu time spent up to now is    15055.5 secs

     total energy              =   -3432.61814490 Ry
     estimated scf accuracy    <       0.00000062 Ry
     electrostatic embedding   =      -0.02581723 Ry
     cavitation energy         =       0.02079301 Ry
     PV energy                 =      -0.07962429 Ry
     correction to one-el term =     198.21511945 Ry

     iteration # 13     ecut=    50.00 Ry     beta= 0.70
     Davidson diagonalization with overlap
     ethr =  1.69E-10,  avg # of iterations =  2.0

     negative rho (up, down):  2.140E-04 0.000E+00

     add environment contribution to local potential
     Polarization accuracy = 9.1E-12, # of iterations =  36

     total cpu time spent up to now is    15201.4 secs

     total energy              =   -3432.61814514 Ry
     estimated scf accuracy    <       0.00000029 Ry
     electrostatic embedding   =      -0.02587267 Ry
     cavitation energy         =       0.02079356 Ry
     PV energy                 =      -0.07962270 Ry
     correction to one-el term =     198.19374846 Ry

     iteration # 14     ecut=    50.00 Ry     beta= 0.70
     Davidson diagonalization with overlap
     ethr =  8.02E-11,  avg # of iterations =  2.0

     negative rho (up, down):  1.605E-04 0.000E+00

     add environment contribution to local potential
     Polarization accuracy = 8.6E-13, # of iterations =  38

     total cpu time spent up to now is    15360.1 secs

     total energy              =   -3432.61814518 Ry
     estimated scf accuracy    <       0.00000008 Ry
     electrostatic embedding   =      -0.02589824 Ry
     cavitation energy         =       0.02079404 Ry
     PV energy                 =      -0.07962250 Ry
     correction to one-el term =     198.18078282 Ry

     iteration # 15     ecut=    50.00 Ry     beta= 0.70
     Davidson diagonalization with overlap
     ethr =  2.19E-11,  avg # of iterations =  2.0

     negative rho (up, down):  1.530E-04 0.000E+00

     add environment contribution to local potential
     Polarization accuracy = 8.9E-12, # of iterations =  36

     total cpu time spent up to now is    15498.5 secs

     total energy              =   -3432.61814510 Ry
     estimated scf accuracy    <          7.3E-09 Ry
     electrostatic embedding   =      -0.02590636 Ry
     cavitation energy         =       0.02079444 Ry
     PV energy                 =      -0.07962290 Ry
     correction to one-el term =     198.17422730 Ry

     iteration # 16     ecut=    50.00 Ry     beta= 0.70
     Davidson diagonalization with overlap
     ethr =  2.02E-12,  avg # of iterations =  6.0

     negative rho (up, down):  1.507E-04 0.000E+00

     add environment contribution to local potential
     Polarization accuracy = 8.9E-12, # of iterations =  36

     total cpu time spent up to now is    15620.7 secs

     total energy              =   -3432.61814510 Ry
     estimated scf accuracy    <          5.4E-09 Ry
     electrostatic embedding   =      -0.02591046 Ry
     cavitation energy         =       0.02079454 Ry
     PV energy                 =      -0.07962284 Ry
     correction to one-el term =     198.17292783 Ry

     iteration # 17     ecut=    50.00 Ry     beta= 0.70
     Davidson diagonalization with overlap
     ethr =  1.47E-12,  avg # of iterations =  2.0

     negative rho (up, down):  1.516E-04 0.000E+00

     the potential shift due to the Gaussian-smeared nuclei is    -1.3353 ev

     total cpu time spent up to now is    15762.3 secs

     End of self-consistent calculation

          k = 0.2500 0.2752 0.0000 ( 34780 PWs)   bands (ev):

   -78.6430 -78.6393 -78.6333 -78.6296 -78.2612 -78.2572 -78.2512 -78.2473
   -78.1214 -78.1174 -77.9515 -77.9480 -48.8170 -48.8122 -48.8072 -48.8024
   -48.6718 -48.6622 -48.5904 -48.5808 -48.4950 -48.4854 -48.4848 -48.4823
   -48.4799 -48.4752 -48.4725 -48.4700 -48.3513 -48.3479 -48.3327 -48.3319
   -48.2699 -48.2599 -48.1827 -48.1804 -48.1728 -48.0991 -48.0909 -48.0810
   -48.0786 -48.0686 -47.9083 -47.9032 -47.8558 -47.7918 -47.7875 -47.7801
   -24.7130 -24.5652 -24.4598 -24.1419 -24.0519 -24.0039 -23.8101 -23.6317
   -23.5629 -23.5318 -23.5279 -23.4881 -23.4549 -23.3934 -23.3641 -23.3452
   -23.2789 -23.1638 -23.1468 -23.1118 -23.1086 -23.0940 -22.9350 -22.9266
   -22.6528 -22.6084 -22.5004 -22.3251 -12.8255 -12.8143 -12.7634 -12.2559
   -12.2203 -12.2087 -12.1550 -12.0011 -11.9430 -11.9254 -11.8371 -11.8261
   -11.8053 -11.7989 -11.7349 -11.6849 -11.5017 -11.4761 -11.4236 -11.3641
   -11.2533 -11.1916 -10.9581 -10.9238 -10.8647 -10.8292 -10.6668 -10.5808
   -10.4992 -10.4326 -10.3813 -10.3544 -10.1666  -9.9662  -9.9408  -9.9005
    -9.8543  -9.8300  -9.7393  -9.5415  -9.5202  -9.5129  -9.4363  -9.2086
    -9.1974  -9.0298  -8.9739  -8.9027  -8.8430  -8.7748  -8.7631  -8.7452
    -8.6905  -8.6441  -8.5528  -8.5257  -8.5029  -8.4255  -8.3905  -8.3345
    -8.1737  -8.1735  -8.1061  -7.8772  -7.8746  -7.8291  -7.7205  -7.7077
    -7.6836  -7.5158  -7.4385  -7.3615  -7.3575  -7.2276  -7.1802  -7.1529
    -7.0545  -7.0281  -6.9477  -6.9215  -6.9030  -6.7623  -6.5944  -6.5739
    -5.6621  -5.5968  -5.5900  -5.5787  -5.5477  -5.5247  -5.4988  -5.4976
    -5.4595  -5.3877  -5.3150  -5.3069  -5.2392  -5.2148  -5.1983  -5.0341
    -5.0239  -4.9725  -4.9371  -4.7982  -4.7721  -4.7690  -4.5402  -4.4112
    -4.3881  -4.3753  -4.1827  -4.1634  -3.9475  -3.8627  -3.8249  -3.7709
    -3.6904  -3.6825  -3.4572  -3.3348  -3.0980  -2.5376  -2.4386  -2.3533
    -2.3116  -2.2833  -1.6602  -1.2278  -1.2254  -0.9909  -0.7530  -0.6814
    -0.6420  -0.5320  -0.4900  -0.4769  -0.2342  -0.2050  -0.1243   0.1374
     0.2322   0.2716

     the Fermi energy is    -4.6500 ev

!    total energy              =   -3432.61814510 Ry
     estimated scf accuracy    <          3.8E-10 Ry
     smearing contrib. (-TS)   =       0.05271431 Ry
     internal energy E=F+TS    =   -3432.67085941 Ry

     The total energy is F=E-TS. E is the sum of the following terms:
     one-electron contribution =  -25675.24729872 Ry
     hartree contribution      =   12812.02905125 Ry
     xc contribution           =    -446.35451878 Ry
     ewald contribution        =    9945.37728854 Ry
     one-center paw contrib.   =    -266.56307603 Ry
     electrostatic embedding   =      -0.02591253 Ry
     cavitation energy         =       0.02079457 Ry
     PV energy                 =      -0.07962278 Ry
     correction to one-el term =     198.17243509 Ry

     WARNING: you are using the parabolic pbc correction;
              the potential shift above must be added to 
              band and Fermi energies.

     convergence has been achieved in  17 iterations

     negative rho (up, down):  1.516E-04 0.000E+00

     Forces acting on atoms (cartesian axes, Ry/au):

     atom    1 type  1   force =    -0.03147117    0.00000000    0.01290847
     atom    2 type  1   force =    -0.03147000    0.00000000    0.01290726
     atom    3 type  1   force =     0.00012953    0.00000000    0.00019496
     atom    4 type  1   force =     0.00012921    0.00000000    0.00019481
     atom    5 type  2   force =    -0.00044862    0.00000000   -0.00388330
     atom    6 type  2   force =    -0.00044853    0.00000000   -0.00388325
     atom    7 type  1   force =     0.00135650    0.00883995    0.00210461
     atom    8 type  1   force =     0.00135631    0.00884014    0.00210461
     atom    9 type  2   force =     0.00667294    0.00000000   -0.00600609
     atom   10 type  2   force =     0.00667209    0.00000000   -0.00600468
     atom   11 type  1   force =     0.00135650   -0.00883995    0.00210461
     atom   12 type  1   force =     0.00135631   -0.00884014    0.00210461
     atom   13 type  1   force =     0.00049525    0.00000000   -0.00892747
     atom   14 type  1   force =     0.00049598    0.00000000   -0.00892647
     atom   15 type  1   force =    -0.00538278    0.00000000    0.01383693
     atom   16 type  1   force =    -0.00538258    0.00000000    0.01384129
     atom   17 type  2   force =     0.00053426    0.00000000    0.00000000
     atom   18 type  2   force =     0.00053536    0.00000000    0.00000000
     atom   19 type  1   force =    -0.00134632   -0.01002297    0.00000000
     atom   20 type  1   force =    -0.00134660   -0.01002047    0.00000000
     atom   21 type  2   force =     0.00393606    0.00000000    0.00000000
     atom   22 type  2   force =     0.00393975    0.00000000    0.00000000
     atom   23 type  1   force =    -0.00134632    0.01002297    0.00000000
     atom   24 type  1   force =    -0.00134660    0.01002047    0.00000000
     atom   25 type  1   force =    -0.00538278    0.00000000   -0.01383693
     atom   26 type  1   force =    -0.00538258    0.00000000   -0.01384129
[...]
     atom   40 type  1   force =    -2.91361793    0.00000015   96.61971394
     atom   41 type  3   force =     2.78898633    0.00000002  -16.65789025
     atom   42 type  3   force =     2.78907984    0.00000002   16.65791669
     atom   43 type  3   force =     2.78897223    0.00000002  -16.65788492
     atom   44 type  3   force =     2.78906574    0.00000002   16.65791136
     The local contribution  to forces
     atom    1 type  1   force =     1.13128703   -0.00000000   96.33956818
     atom    2 type  1   force =     1.13127072    0.00000000   96.33957919
     atom    3 type  1   force =     0.00735130    0.00000000   93.51801440
     atom    4 type  1   force =     0.00734970   -0.00000000   93.51801448
     atom    5 type  2   force =    -0.04486005    0.00000000  177.70546370
     atom    6 type  2   force =    -0.04486212   -0.00000000  177.70546678
     atom    7 type  1   force =    -0.05799667    1.11158219   63.79513724
     atom    8 type  1   force =    -0.05799597    1.11158096   63.79515014
     atom    9 type  2   force =     0.07553266    0.00000000  170.28508158
     atom   10 type  2   force =     0.07551766    0.00000000  170.28506693
     atom   11 type  1   force =    -0.05799667   -1.11158219   63.79513724
     atom   12 type  1   force =    -0.05799597   -1.11158096   63.79515014
     atom   13 type  1   force =     0.02604069    0.00000000   38.92722898
     atom   14 type  1   force =     0.02604235    0.00000000   38.92722802
     atom   15 type  1   force =     0.10719256   -0.00000000   25.47692697
     atom   16 type  1   force =     0.10719502   -0.00000000   25.47692466
     atom   17 type  2   force =     0.06003797    0.00000000   -0.00590261
     atom   18 type  2   force =     0.06004315    0.00000000   -0.00590261
     atom   19 type  1   force =    -0.01183742   -0.21900657   -0.00247911
     atom   20 type  1   force =    -0.01183546   -0.21900685   -0.00247911
     atom   21 type  2   force =    -0.37021962   -0.00000000   -0.00605641
     atom   22 type  2   force =    -0.37021801   -0.00000000   -0.00605641
     atom   23 type  1   force =    -0.01183826    0.21866044   -0.00247911
     atom   24 type  1   force =    -0.01183629    0.21866071   -0.00247911
     atom   25 type  1   force =     0.10718432   -0.00000000  -25.47868589
     atom   26 type  1   force =     0.10718678    0.00000000  -25.47868359
     atom   27 type  1   force =     0.02604087    0.00000000  -38.92898654
     atom   28 type  1   force =     0.02604252   -0.00000000  -38.92898557
     atom   29 type  2   force =    -0.04485988    0.00000000 -177.71160162
     atom   30 type  2   force =    -0.04486195   -0.00000000 -177.71160470
     atom   31 type  1   force =    -0.05799463    1.11155747  -63.79760818
     atom   32 type  1   force =    -0.05799393    1.11155623  -63.79762108
     atom   33 type  2   force =     0.07551950    0.00000000 -170.29091307
     atom   34 type  2   force =     0.07550450    0.00000000 -170.29089841
     atom   35 type  1   force =    -0.05799463   -1.11155747  -63.79760818
     atom   36 type  1   force =    -0.05799393   -1.11155623  -63.79762108
     atom   37 type  1   force =     0.00735025    0.00000000  -93.52193713
     atom   38 type  1   force =     0.00734865   -0.00000000  -93.52193721
     atom   39 type  1   force =     1.13131263   -0.00000000  -96.34110829
     atom   40 type  1   force =     1.13129632    0.00000000  -96.34111931
     atom   41 type  3   force =    -2.70437314   -0.00000000   16.62767051
     atom   42 type  3   force =    -2.70437314    0.00000000  -16.62767051
     atom   43 type  3   force =    -2.70436304    0.00000000   16.62766703
     atom   44 type  3   force =    -2.70436304    0.00000000  -16.62766703
     The core correction contribution to forces
     atom    1 type  1   force =    -0.01791578   -0.00000000   -0.00320839
     atom    2 type  1   force =    -0.01791582   -0.00000000   -0.00320835
     atom    3 type  1   force =    -0.00003647   -0.00000000   -0.01074097
     atom    4 type  1   force =    -0.00003647   -0.00000000   -0.01074097
     atom    5 type  2   force =     0.00000000    0.00000000    0.00000000
     atom    6 type  2   force =     0.00000000    0.00000000    0.00000000
     atom    7 type  1   force =     0.00022340    0.00075423    0.00012410
     atom    8 type  1   force =     0.00022340    0.00075423    0.00012410
     atom    9 type  2   force =     0.00000000    0.00000000    0.00000000
     atom   10 type  2   force =     0.00000000    0.00000000    0.00000000
     atom   11 type  1   force =     0.00022340   -0.00075423    0.00012410
     atom   12 type  1   force =     0.00022340   -0.00075423    0.00012410
     atom   13 type  1   force =    -0.00002081    0.00000000   -0.00061635
     atom   14 type  1   force =    -0.00002081    0.00000000   -0.00061636
     atom   15 type  1   force =     0.00004130   -0.00000000   -0.00028767
     atom   16 type  1   force =     0.00004130   -0.00000000   -0.00028767
     atom   17 type  2   force =     0.00000000    0.00000000    0.00000000
     atom   18 type  2   force =     0.00000000    0.00000000    0.00000000
     atom   19 type  1   force =    -0.00008561   -0.00023905   -0.00000214
     atom   20 type  1   force =    -0.00008562   -0.00023905   -0.00000214
     atom   21 type  2   force =     0.00000000    0.00000000    0.00000000
     atom   22 type  2   force =     0.00000000    0.00000000    0.00000000
     atom   23 type  1   force =    -0.00008562    0.00023856   -0.00000214
     atom   24 type  1   force =    -0.00008562    0.00023856   -0.00000214
     atom   25 type  1   force =     0.00004127    0.00000000    0.00028556
     atom   26 type  1   force =     0.00004127    0.00000000    0.00028556
     atom   27 type  1   force =    -0.00002081   -0.00000000    0.00061391
     atom   28 type  1   force =    -0.00002081   -0.00000000    0.00061391
     atom   29 type  2   force =     0.00000000    0.00000000    0.00000000
     atom   30 type  2   force =     0.00000000    0.00000000    0.00000000
     atom   31 type  1   force =     0.00022342    0.00075408   -0.00012598
     atom   32 type  1   force =     0.00022342    0.00075408   -0.00012598
     atom   33 type  2   force =     0.00000000    0.00000000    0.00000000
     atom   34 type  2   force =     0.00000000    0.00000000    0.00000000
     atom   35 type  1   force =     0.00022342   -0.00075408   -0.00012598
     atom   36 type  1   force =     0.00022342   -0.00075408   -0.00012598
     atom   37 type  1   force =    -0.00003648   -0.00000000    0.01073624
     atom   38 type  1   force =    -0.00003647   -0.00000000    0.01073623
     atom   39 type  1   force =    -0.01791657   -0.00000000    0.00320603
     atom   40 type  1   force =    -0.01791661   -0.00000000    0.00320599
     atom   41 type  3   force =     0.00000000    0.00000000    0.00000000
     atom   42 type  3   force =     0.00000000    0.00000000    0.00000000
     atom   43 type  3   force =     0.00000000    0.00000000    0.00000000
     atom   44 type  3   force =     0.00000000    0.00000000    0.00000000
     The Hubbard contrib.    to forces
     atom    1 type  1   force =     0.00000000    0.00000000    0.00000000
     atom    2 type  1   force =     0.00000000    0.00000000    0.00000000
     atom    3 type  1   force =     0.00000000    0.00000000    0.00000000
     atom    4 type  1   force =     0.00000000    0.00000000    0.00000000
     atom    5 type  2   force =     0.00000000    0.00000000    0.00000000
     atom    6 type  2   force =     0.00000000    0.00000000    0.00000000
     atom    7 type  1   force =     0.00000000    0.00000000    0.00000000
     atom    8 type  1   force =     0.00000000    0.00000000    0.00000000
     atom    9 type  2   force =     0.00000000    0.00000000    0.00000000
     atom   10 type  2   force =     0.00000000    0.00000000    0.00000000
     atom   11 type  1   force =     0.00000000    0.00000000    0.00000000
     atom   12 type  1   force =     0.00000000    0.00000000    0.00000000
     atom   13 type  1   force =     0.00000000    0.00000000    0.00000000
     atom   14 type  1   force =     0.00000000    0.00000000    0.00000000
     atom   15 type  1   force =     0.00000000    0.00000000    0.00000000
     atom   16 type  1   force =     0.00000000    0.00000000    0.00000000
     atom   17 type  2   force =     0.00000000    0.00000000    0.00000000
     atom   18 type  2   force =     0.00000000    0.00000000    0.00000000
     atom   19 type  1   force =     0.00000000    0.00000000    0.00000000
     atom   20 type  1   force =     0.00000000    0.00000000    0.00000000
     atom   21 type  2   force =     0.00000000    0.00000000    0.00000000
     atom   22 type  2   force =     0.00000000    0.00000000    0.00000000
     atom   23 type  1   force =     0.00000000    0.00000000    0.00000000
     atom   24 type  1   force =     0.00000000    0.00000000    0.00000000
     atom   25 type  1   force =     0.00000000    0.00000000    0.00000000
     atom   26 type  1   force =     0.00000000    0.00000000    0.00000000
     atom   27 type  1   force =     0.00000000    0.00000000    0.00000000
     atom   28 type  1   force =     0.00000000    0.00000000    0.00000000
     atom   29 type  2   force =     0.00000000    0.00000000    0.00000000
     atom   30 type  2   force =     0.00000000    0.00000000    0.00000000
     atom   31 type  1   force =     0.00000000    0.00000000    0.00000000
     atom   32 type  1   force =     0.00000000    0.00000000    0.00000000
     atom   33 type  2   force =     0.00000000    0.00000000    0.00000000
     atom   34 type  2   force =     0.00000000    0.00000000    0.00000000
     atom   35 type  1   force =     0.00000000    0.00000000    0.00000000
     atom   36 type  1   force =     0.00000000    0.00000000    0.00000000
     atom   37 type  1   force =     0.00000000    0.00000000    0.00000000
     atom   38 type  1   force =     0.00000000    0.00000000    0.00000000
     atom   39 type  1   force =     0.00000000    0.00000000    0.00000000
     atom   40 type  1   force =     0.00000000    0.00000000    0.00000000
     atom   41 type  3   force =     0.00000000    0.00000000    0.00000000
     atom   42 type  3   force =     0.00000000    0.00000000    0.00000000
     atom   43 type  3   force =     0.00000000    0.00000000    0.00000000
     atom   44 type  3   force =     0.00000000    0.00000000    0.00000000
     The SCF correction term to forces
     atom    1 type  1   force =    -0.00000013    0.00000000    0.00000075
     atom    2 type  1   force =    -0.00000004   -0.00000000    0.00000132
     atom    3 type  1   force =    -0.00000018   -0.00000000    0.00000087
     atom    4 type  1   force =    -0.00000015   -0.00000000    0.00000096
     atom    5 type  2   force =     0.00000076   -0.00000000    0.00000231
     atom    6 type  2   force =     0.00000001   -0.00000000    0.00000225
     atom    7 type  1   force =     0.00000089   -0.00000082    0.00000139
     atom    8 type  1   force =    -0.00000025   -0.00000084    0.00000134
     atom    9 type  2   force =    -0.00000035    0.00000000    0.00000475
     atom   10 type  2   force =    -0.00000045    0.00000000    0.00000452
     atom   11 type  1   force =     0.00000089    0.00000082    0.00000139
     atom   12 type  1   force =    -0.00000025    0.00000084    0.00000134
     atom   13 type  1   force =    -0.00000007   -0.00000000    0.00000150
     atom   14 type  1   force =    -0.00000010   -0.00000000    0.00000145
     atom   15 type  1   force =     0.00000006    0.00000000    0.00000189
     atom   16 type  1   force =    -0.00000023    0.00000000    0.00000130
     atom   17 type  2   force =     0.00000094    0.00000000   -0.00000003
     atom   18 type  2   force =     0.00000064    0.00000000   -0.00000003
     atom   19 type  1   force =    -0.00000054   -0.00000029   -0.00000001
     atom   20 type  1   force =    -0.00000074   -0.00000044   -0.00000001
     atom   21 type  2   force =    -0.00000008    0.00000000   -0.00000002
     atom   22 type  2   force =    -0.00000067    0.00000000   -0.00000002
     atom   23 type  1   force =    -0.00000054    0.00000029   -0.00000001
     atom   24 type  1   force =    -0.00000074    0.00000044   -0.00000001
     atom   25 type  1   force =     0.00000006    0.00000000   -0.00000191
     atom   26 type  1   force =    -0.00000023    0.00000000   -0.00000132
     atom   27 type  1   force =    -0.00000007   -0.00000000   -0.00000152
     atom   28 type  1   force =    -0.00000010   -0.00000000   -0.00000147
     atom   29 type  2   force =     0.00000076   -0.00000000   -0.00000233
     atom   30 type  2   force =     0.00000001   -0.00000000   -0.00000226
     atom   31 type  1   force =     0.00000089   -0.00000082   -0.00000140
     atom   32 type  1   force =    -0.00000025   -0.00000084   -0.00000135
     atom   33 type  2   force =    -0.00000035    0.00000000   -0.00000478
     atom   34 type  2   force =    -0.00000045    0.00000000   -0.00000455
     atom   35 type  1   force =     0.00000089    0.00000082   -0.00000140
     atom   36 type  1   force =    -0.00000025    0.00000084   -0.00000135
     atom   37 type  1   force =    -0.00000018    0.00000000   -0.00000087
     atom   38 type  1   force =    -0.00000015    0.00000000   -0.00000096
     atom   39 type  1   force =    -0.00000013    0.00000000   -0.00000074
     atom   40 type  1   force =    -0.00000004    0.00000000   -0.00000132
     atom   41 type  3   force =     0.00000014   -0.00000000   -0.00000002
     atom   42 type  3   force =     0.00000014    0.00000000    0.00000002
     atom   43 type  3   force =     0.00000006   -0.00000000    0.00000004
     atom   44 type  3   force =     0.00000006   -0.00000000   -0.00000004

     Total force =     0.000431     Total SCF correction =     0.000013
     Energy error            =      6.0E-07 Ry
     Gradient error          =      1.0E-04 Ry/Bohr

     bfgs converged in  25 scf cycles and  24 bfgs steps
     (criteria: energy <  1.0E-04 Ry, force <  1.0E-04 Ry/Bohr)

     End of BFGS Geometry Optimization

     Final energy             =   -3432.6240493024 Ry

     File /storage/home/mgm6007/ixd4/Maria/StrainJin_Files/RuO2-110-0-01/RuO2-110-0-01.bfgs deleted, as requested
Begin final coordinates

ATOMIC_POSITIONS (crystal)
O            -0.0108098126        0.5000000000        0.2710605084
O             0.4891898780        0.5000000000        0.2710605396
O            -0.0000510426        0.0000000000        0.3065449398
O             0.4999489630        0.0000000000        0.3065449437
Ru            0.2498743595        0.0000000000        0.3534096360
Ru            0.7498743607        0.0000000000        0.3534096360
O             0.2496009778        0.3145735784        0.3580762107
O             0.7496009779        0.3145735849        0.3580761984
Ru            0.0003845279        0.5000000000        0.3579586773
Ru            0.5003845351        0.5000000000        0.3579586812
O             0.2496009778        0.6854264216        0.3580762107
O             0.7496009779        0.6854264151        0.3580761984
O             0.0000378021        0.0000000000        0.4114428119
O             0.5000378303        0.0000000000        0.4114428063
O             0.0034694666        0.5000000000        0.4457599698
O             0.5034694934        0.5000000000        0.4457599816
Ru            0.0003402572        0.0000000000        0.5000010000
Ru            0.5003402631        0.0000000000        0.5000010000
O             0.2500348387        0.1864159748        0.5000010000
O             0.7500348408        0.1864159757        0.5000010000
Ru            0.2520991665        0.5000000000        0.5000010000
Ru            0.7520991962        0.5000000000        0.5000010000
O             0.2500348387        0.8135850252        0.5000010000
O             0.7500348408        0.8135850243        0.5000010000
O             0.0034694666        0.5000000000        0.5542410302
O             0.5034694934        0.5000000000        0.5542410184
O             0.0000378021        0.0000000000        0.5885581881
O             0.5000378303        0.0000000000        0.5885581937
Ru            0.2498743595        0.0000000000        0.6465913640
Ru            0.7498743607        0.0000000000        0.6465913640
O             0.2496009778        0.3145735784        0.6419247893
O             0.7496009779        0.3145735849        0.6419248016
Ru            0.0003845279        0.5000000000        0.6420423227
Ru            0.5003845351        0.5000000000        0.6420423188
O             0.2496009778        0.6854264216        0.6419247893
O             0.7496009779        0.6854264151        0.6419248016
O            -0.0000510426        0.0000000000        0.6934570602
O             0.4999489630        0.0000000000        0.6934570563
O            -0.0108098126        0.5000000000        0.7289404916
O             0.4891898780        0.5000000000        0.7289404604
H             0.1242733606        0.5000000000        0.2519553087
H             0.1242733606        0.5000000000        0.7480446913
H             0.6242732458        0.5000000000        0.2519552446
H             0.6242732458        0.5000000000        0.7480447554
End final coordinates



     Writing all to output data dir /storage/home/mgm6007/ixd4/Maria/StrainJin_Files/RuO2-110-0-01/RuO2-110-0-01.save/
 
     init_run     :    459.19s CPU   1032.52s WALL (       1 calls)
     electrons    :  33361.04s CPU 101766.62s WALL (      25 calls)
     update_pot   :     40.41s CPU     48.69s WALL (      24 calls)
     forces       :     38.25s CPU     45.59s WALL (      25 calls)

     Called by init_run:
     wfcinit      :      0.47s CPU      0.48s WALL (       1 calls)
     potinit      :    359.83s CPU    735.78s WALL (       1 calls)
     hinit0       :     98.44s CPU    295.76s WALL (       1 calls)

     Called by electrons:
     c_bands      :    490.21s CPU    575.08s WALL (     408 calls)
     sum_band     :    103.57s CPU    121.68s WALL (     408 calls)
     v_of_rho     :     55.89s CPU     60.94s WALL (     413 calls)
     newd         :     27.20s CPU     30.81s WALL (     413 calls)
     PAW_pot      :     50.33s CPU     59.11s WALL (     437 calls)
     mix_rho      :    271.38s CPU    322.18s WALL (     408 calls)

     Called by c_bands:
     init_us_2    :      5.55s CPU      5.94s WALL (     841 calls)
     init_us_2:cp :      5.54s CPU      5.93s WALL (     841 calls)
     cegterg      :    471.39s CPU    554.06s WALL (     408 calls)

     Called by *egterg:
     cdiaghg      :     57.53s CPU     66.98s WALL (    1173 calls)
     h_psi        :    249.67s CPU    296.91s WALL (    1218 calls)
     s_psi        :     37.00s CPU     42.97s WALL (    1218 calls)
     g_psi        :      1.19s CPU      1.29s WALL (     809 calls)

     Called by h_psi:
     h_psi:calbec :     36.88s CPU     43.18s WALL (    1218 calls)
     vloc_psi     :    172.77s CPU    206.98s WALL (    1218 calls)
     add_vuspsi   :     37.23s CPU     43.52s WALL (    1218 calls)

     General routines
     calbec       :     58.64s CPU     68.64s WALL (    1750 calls)
     fft          :   4811.17s CPU   4816.79s WALL (    5638 calls)
     ffts         :     99.15s CPU    115.11s WALL (  153614 calls)
     fftw         :    158.06s CPU    190.77s WALL (  471412 calls)
     interpolate  :   4781.69s CPU   4783.24s WALL (     413 calls)
 
     Parallel routines
 
     Environ routines
 
     PWSCF        :      9h56m CPU   1d 6h17m WALL

 
   This run was terminated on:  22:35:19  25Jul2023            

=------------------------------------------------------------------------------=
   JOB DONE.
=------------------------------------------------------------------------------=
