
     Program PWSCF v.7.2 starts on 19Jul2023 at 20:27:25 
        Git branch: heads/qe-7.2
        Last git commit: b4c5e8deeb7d1863e7553a87b45f8d22c21926a5
        Last git commit date: Mon Mar 27 16:12:09 2023 +0000
        Last git commit subject: Merge branch 'merge_fix_hubbard' into 'develop'

     This program is part of the open-source Quantum ESPRESSO suite
     for quantum simulation of materials; please cite
         "P. Giannozzi et al., J. Phys.:Condens. Matter 21 395502 (2009);
         "P. Giannozzi et al., J. Phys.:Condens. Matter 29 465901 (2017);
         "P. Giannozzi et al., J. Chem. Phys. 152 154105 (2020);
          URL http://www.quantum-espresso.org", 
     in publications or presentations arising from this work. More details at
     http://www.quantum-espresso.org/quote

     Parallel version (MPI), running on    20 processors

     MPI processes distributed on     1 nodes
     92788 MiB available memory on the printing compute node when the environment starts
 
     Reading input from RuO2-110-0-025.in

     Current dimensions of program PWSCF are:
     Max number of different atomic species (ntypx) = 10
     Max number of k-points (npk) =  40000
     Max angular momentum in pseudopotentials (lmaxx) =  4
 
     Reading input from environ.in:
     * Environ restarting
     * setting up water environment
     * using electronic solvent mode
     * setting boundary derivatives method to SCCS default
     
     file O.pbe-n-kjpaw_psl.0.1.UPF: wavefunction(s)  2P renormalized
     Message from routine setup:
     using ibrav=0 with symmetry is DISCOURAGED, use correct ibrav instead
 
     R & G space division:  proc/nbgrp/npool/nimage =      20
     Subspace diagonalization in iterative solution of the eigenvalue problem:
     one sub-group per band group will be used
     scalapack distributed-memory algorithm (size of sub-group:  2*  2 procs)

 
     Parallelization info
     --------------------
     sticks:   dense  smooth     PW     G-vecs:    dense   smooth      PW
     Min         282     113     29                56190    14217    1913
     Max         283     114     30                56201    14227    1932
     Sum        5657    2263    593              1123933   284439   38425
 
     Using Slab Decomposition
 


     bravais-lattice index     =            0
     lattice parameter (alat)  =      12.1041  a.u.
     unit-cell volume          =    5954.5483 (a.u.)^3
     number of atoms/cell      =           46
     number of atomic types    =            3
     number of electrons       =       366.00
     number of Kohn-Sham states=          220
     kinetic-energy cutoff     =      50.0000  Ry
     charge density cutoff     =     500.0000  Ry
     scf convergence threshold =      1.0E-09
     mixing beta               =       0.7000
     number of iterations used =            8  local-TF  mixing
     energy convergence thresh.=      1.0E-04
     force convergence thresh. =      1.0E-04
     Exchange-correlation= PBE
                           (   1   4   3   4   0   0   0)
     nstep                     =          200


     ================================================================================
 
                                  Environ Setup Summary

     ================================================================================
 
     Please cite

          O. Andreussi, I. Dabo and N. Marzari, J. Chem. Phys. 136, 064102 (2012)

     in publications or presentations arising from this work.

     ================================================================================
 
     Parameters
     ==========

     compensation onset threshold      =               0.1000E+00
     static permittivity               =                    78.30
     surface tension in input (dyn/cm) =                    47.90
     surface tension in internal units =               0.6153E-04
     external pressure in input (GPa)  =                    -0.36
     external pressure in inter. units =              -0.2447E-04

     Solvent Boundary
     ================

     solvent mode                      =               electronic
     derivatives method                =                    chain
     numerical core for derivatives    =                      fft
     switching function adopted        =                     SCCS
     density limit for vacuum region   =               0.5000E-02
     density limit for bulk solvent    =               0.1000E-03

     Electrostatic Setup
     ===================

     electrostatic problem to solve    =              generalized
     numerical solver adopted          =                       cg
     type of auxiliary density adopted =                     none
     numerical core for poisson        =                      fft
     type of pbc corrections           =                parabolic
     numerical core for corrections    =                      1da

     ================================================================================
 

     celldm(1)=  12.104053  celldm(2)=   0.000000  celldm(3)=   0.000000
     celldm(4)=   0.000000  celldm(5)=   0.000000  celldm(6)=   0.000000

     crystal axes: (cart. coord. in units of alat)
               a(1) = (   1.000000   0.000000   0.000000 )  
               a(2) = (   0.000000   0.971735   0.000000 )  
               a(3) = (   0.000000   0.000000   3.455479 )  

     reciprocal axes: (cart. coord. in units 2 pi/alat)
               b(1) = (  1.000000  0.000000  0.000000 )  
               b(2) = (  0.000000  1.029087  0.000000 )  
               b(3) = (  0.000000  0.000000  0.289395 )  


     PseudoPot. # 1 for O  read from file:
     /gpfs/group/ixd4/default/Simon/pseudopotentials/materialscloud/SSSP_1.3.0_PBE_efficiency/O.pbe-n-kjpaw_psl.0.1.UPF
     MD5 check sum: 0234752ac141de4415c5fc33072bef88
     Pseudo is Projector augmented-wave + core cor, Zval =  6.0
     Generated using "atomic" code by A. Dal Corso  v.5.0.99 svn rev. 10869
     Shape of augmentation charge: BESSEL
     Using radial grid of 1095 points,  4 beta functions with: 
                l(1) =   0
                l(2) =   0
                l(3) =   1
                l(4) =   1
     Q(r) pseudized with 0 coefficients 


     PseudoPot. # 2 for Ru read from file:
     /gpfs/group/ixd4/default/Simon/pseudopotentials/materialscloud/SSSP_1.3.0_PBE_efficiency/Ru_ONCV_PBE-1.0.oncvpsp.upf
     MD5 check sum: be037bb81c227cfb9b1461a9f099f4bd
     Pseudo is Norm-conserving, Zval = 16.0
     Generated using ONCVPSP code by D. R. Hamann
     Using radial grid of 1458 points,  6 beta functions with: 
                l(1) =   0
                l(2) =   0
                l(3) =   1
                l(4) =   1
                l(5) =   2
                l(6) =   2

     PseudoPot. # 3 for H  read from file:
     /gpfs/group/ixd4/default/Simon/pseudopotentials/materialscloud/SSSP_1.3.0_PBE_efficiency/H.pbe-rrkjus_psl.1.0.0.UPF
     MD5 check sum: f52b6d4d1c606e5624b1dc7b2218f220
     Pseudo is Ultrasoft, Zval =  1.0
     Generated using "atomic" code by A. Dal Corso  v.5.1
     Using radial grid of  929 points,  2 beta functions with: 
                l(1) =   0
                l(2) =   0
     Q(r) pseudized with 0 coefficients 


     atomic species   valence    mass     pseudopotential
        O              6.00    15.99940     O ( 1.00)
        Ru            16.00   101.07000     Ru( 1.00)
        H              1.00     1.00794     H ( 1.00)

      2 Sym. Ops. (no inversion) found



   Cartesian axes

     site n.     atom                  positions (alat units)
         1           O   tau(   1) = (   0.0095699   0.4443308   0.9360972  )
         2           O   tau(   2) = (   0.4788182   0.4827819   0.9439599  )
         3           O   tau(   3) = (  -0.0006375   0.0131690   1.0380253  )
         4           O   tau(   4) = (   0.4974963  -0.0030898   1.0482937  )
         5           Ru  tau(   5) = (   0.2484214  -0.0036663   1.2402739  )
         6           Ru  tau(   6) = (   0.7485081  -0.0036262   1.2382862  )
         7           O   tau(   7) = (   0.2494148   0.2901835   1.2469236  )
         8           O   tau(   8) = (   0.7495469   0.2932846   1.2372075  )
         9           Ru  tau(   9) = (   0.0006120   0.4826483   1.2383664  )
        10           Ru  tau(  10) = (   0.5019652   0.4794677   1.2123908  )
        11           O   tau(  11) = (   0.2403653   0.6756531   1.2317460  )
        12           O   tau(  12) = (   0.7568314   0.6710299   1.2268047  )
        13           O   tau(  13) = (  -0.0035577  -0.0021616   1.4206956  )
        14           O   tau(  14) = (   0.5004145  -0.0084245   1.4240197  )
        15           O   tau(  15) = (   0.0000326   0.4860782   1.5421768  )
        16           O   tau(  16) = (   0.4968152   0.4875044   1.5222712  )
        17           Ru  tau(  17) = (  -0.0054068  -0.0011775   1.7277432  )
        18           Ru  tau(  18) = (   0.5015240   0.0000458   1.7277432  )
        19           O   tau(  19) = (   0.2501320   0.1845285   1.7277432  )
        20           O   tau(  20) = (   0.7459413   0.1921048   1.7277432  )
        21           Ru  tau(  21) = (   0.2557099   0.4865059   1.7277432  )
        22           Ru  tau(  22) = (   0.7435521   0.4859806   1.7277432  )
        23           O   tau(  23) = (   0.2483498   0.7869619   1.7277432  )
        24           O   tau(  24) = (   0.7480089   0.7789051   1.7277432  )
        25           O   tau(  25) = (   0.0000326   0.4860782   1.9133062  )
        26           O   tau(  26) = (   0.4968152   0.4875044   1.9332118  )
        27           O   tau(  27) = (  -0.0035577  -0.0021616   2.0347873  )
        28           O   tau(  28) = (   0.5004145  -0.0084245   2.0314632  )
        29           Ru  tau(  29) = (   0.2484214  -0.0036663   2.2152090  )
        30           Ru  tau(  30) = (   0.7485081  -0.0036262   2.2171967  )
        31           O   tau(  31) = (   0.2494148   0.2901835   2.2085594  )
        32           O   tau(  32) = (   0.7495469   0.2932846   2.2182755  )
        33           Ru  tau(  33) = (   0.0006120   0.4826483   2.2171166  )
        34           Ru  tau(  34) = (   0.5019652   0.4794677   2.2430921  )
        35           O   tau(  35) = (   0.2403653   0.6756531   2.2237369  )
        36           O   tau(  36) = (   0.7568314   0.6710299   2.2286782  )
        37           O   tau(  37) = (  -0.0006375   0.0131690   2.4174611  )
        38           O   tau(  38) = (   0.4974963  -0.0030898   2.4071927  )
        39           O   tau(  39) = (   0.0095699   0.4443308   2.5193858  )
        40           O   tau(  40) = (   0.4788182   0.4827819   2.5115231  )
        41           H   tau(  41) = (   0.1533998   0.4672380   0.8862728  )
        42           H   tau(  42) = (   0.1533998   0.4672380   2.5692067  )
        43           H   tau(  43) = (  -0.0003164   0.1390419   0.9593292  )
        44           H   tau(  44) = (  -0.0003164   0.1390419   2.4961503  )
        45           H   tau(  45) = (   0.4960295   0.9255138   0.9027507  )
        46           H   tau(  46) = (   0.4960295   0.9255138   2.5527288  )

     number of k points=     2  Marzari-Vanderbilt smearing, width (Ry)=  0.0300
                       cart. coord. in units 2pi/alat
        k(    1) = (   0.2500000   0.2572717   0.0000000), wk =   1.0000000
        k(    2) = (  -0.2500000   0.2572717   0.0000000), wk =   1.0000000

     Dense  grid:  1123933 G-vectors     FFT dimensions: (  90,  90, 300)

     Smooth grid:   284439 G-vectors     FFT dimensions: (  60,  54, 192)

     Estimated max dynamical RAM per process >     184.85 MB

     Estimated total dynamical RAM >       3.61 GB

     Check: negative core charge=   -0.000001

     Initial potential from superposition of free atoms

     starting charge     365.9933, renormalised to     366.0000

     add environment contribution to local potential
     Polarization accuracy = 3.3E-12, # of iterations =  26

     negative rho (up, down):  3.225E-05 0.000E+00
     Starting wfcs are  238 randomized atomic wfcs
     Checking if some PAW data can be deallocated... 

     total cpu time spent up to now is     1095.5 secs

     per-process dynamical memory:   157.4 Mb

     Self-consistent Calculation

     iteration #  1     ecut=    50.00 Ry     beta= 0.70
     Davidson diagonalization with overlap
     ethr =  1.00E-02,  avg # of iterations =  2.0

     total cpu time spent up to now is     1406.0 secs

     total energy              =   -3432.96067970 Ry
     estimated scf accuracy    <       9.51680771 Ry
     electrostatic embedding   =      -0.00182080 Ry
     cavitation energy         =       0.02005452 Ry
     PV energy                 =      -0.08572058 Ry
     correction to one-el term =     215.90618403 Ry

     iteration #  2     ecut=    50.00 Ry     beta= 0.70
     Davidson diagonalization with overlap
     ethr =  2.60E-03,  avg # of iterations =  2.0

     total cpu time spent up to now is     1674.9 secs

     total energy              =   -3435.05598125 Ry
     estimated scf accuracy    <       2.22147259 Ry
     electrostatic embedding   =      -0.00278122 Ry
     cavitation energy         =       0.01998384 Ry
     PV energy                 =      -0.08630222 Ry
     correction to one-el term =     215.90907610 Ry

     iteration #  3     ecut=    50.00 Ry     beta= 0.70
     Davidson diagonalization with overlap
     ethr =  6.07E-04,  avg # of iterations =  1.0

     total cpu time spent up to now is     2010.6 secs

     total energy              =   -3435.23971528 Ry
     estimated scf accuracy    <       0.67694254 Ry
     electrostatic embedding   =      -0.00316765 Ry
     cavitation energy         =       0.02005868 Ry
     PV energy                 =      -0.08639679 Ry
     correction to one-el term =     215.91008243 Ry

     iteration #  4     ecut=    50.00 Ry     beta= 0.70
     Davidson diagonalization with overlap
     ethr =  1.85E-04,  avg # of iterations =  1.0

     total cpu time spent up to now is     2328.4 secs

     total energy              =   -3435.29287617 Ry
     estimated scf accuracy    <       0.46047058 Ry
     electrostatic embedding   =      -0.00325412 Ry
     cavitation energy         =       0.02023968 Ry
     PV energy                 =      -0.08593120 Ry
     correction to one-el term =     215.90999862 Ry

     iteration #  5     ecut=    50.00 Ry     beta= 0.70
     Davidson diagonalization with overlap
     ethr =  1.26E-04,  avg # of iterations =  1.0

     total cpu time spent up to now is     2659.2 secs

     total energy              =   -3435.28371551 Ry
     estimated scf accuracy    <       0.21212837 Ry
     electrostatic embedding   =      -0.00340841 Ry
     cavitation energy         =       0.02058163 Ry
     PV energy                 =      -0.08520660 Ry
     correction to one-el term =     215.90999400 Ry

     iteration #  6     ecut=    50.00 Ry     beta= 0.70
     Davidson diagonalization with overlap
     ethr =  5.80E-05,  avg # of iterations =  1.0

     total cpu time spent up to now is     2945.2 secs

     total energy              =   -3435.28193999 Ry
     estimated scf accuracy    <       0.12563767 Ry
     electrostatic embedding   =      -0.00344968 Ry
     cavitation energy         =       0.02111708 Ry
     PV energy                 =      -0.08403139 Ry
     correction to one-el term =     215.90955178 Ry

     iteration #  7     ecut=    50.00 Ry     beta= 0.70
     Davidson diagonalization with overlap
     ethr =  3.43E-05,  avg # of iterations =  1.0

     add environment contribution to local potential
     Polarization accuracy = 7.7E-12, # of iterations =  43

     total cpu time spent up to now is     3270.2 secs

     total energy              =   -3435.27609970 Ry
     estimated scf accuracy    <       0.08220213 Ry
     electrostatic embedding   =      -0.00337654 Ry
     cavitation energy         =       0.02139897 Ry
     PV energy                 =      -0.08333580 Ry
     correction to one-el term =     215.90905479 Ry

     iteration #  8     ecut=    50.00 Ry     beta= 0.70
     Davidson diagonalization with overlap
     ethr =  2.25E-05,  avg # of iterations =  2.0

     add environment contribution to local potential
     Polarization accuracy = 4.2E-12, # of iterations =  44

     total cpu time spent up to now is     3608.3 secs

     total energy              =   -3435.31269053 Ry
     estimated scf accuracy    <       0.07615600 Ry
     electrostatic embedding   =      -0.04480537 Ry
     cavitation energy         =       0.02194605 Ry
     PV energy                 =      -0.08204831 Ry
     correction to one-el term =     181.51758891 Ry

     iteration #  9     ecut=    50.00 Ry     beta= 0.70
     Davidson diagonalization with overlap
     ethr =  2.08E-05,  avg # of iterations =  1.0

     add environment contribution to local potential
     Polarization accuracy = 3.7E-12, # of iterations =  48

     total cpu time spent up to now is     3897.3 secs

     total energy              =   -3435.30938584 Ry
     estimated scf accuracy    <       0.02777788 Ry
     electrostatic embedding   =      -0.04611967 Ry
     cavitation energy         =       0.02197719 Ry
     PV energy                 =      -0.08192851 Ry
     correction to one-el term =     181.29479108 Ry

     iteration # 10     ecut=    50.00 Ry     beta= 0.70
     Davidson diagonalization with overlap
     ethr =  7.59E-06,  avg # of iterations = 13.0

     add environment contribution to local potential
     Polarization accuracy = 4.9E-12, # of iterations =  49

     total cpu time spent up to now is     4110.1 secs

     total energy              =   -3435.31033076 Ry
     estimated scf accuracy    <       0.01707640 Ry
     electrostatic embedding   =      -0.05170110 Ry
     cavitation energy         =       0.02207587 Ry
     PV energy                 =      -0.08152648 Ry
     correction to one-el term =     180.46477293 Ry

     iteration # 11     ecut=    50.00 Ry     beta= 0.70
     Davidson diagonalization with overlap
     ethr =  4.67E-06,  avg # of iterations =  2.0

     negative rho (up, down):  1.656E-03 0.000E+00

     add environment contribution to local potential
     Polarization accuracy = 7.4E-12, # of iterations =  51

     total cpu time spent up to now is     4461.7 secs

     total energy              =   -3435.31083237 Ry
     estimated scf accuracy    <       0.01775151 Ry
     electrostatic embedding   =      -0.05671143 Ry
     cavitation energy         =       0.02201053 Ry
     PV energy                 =      -0.08139312 Ry
     correction to one-el term =     180.43798509 Ry

     iteration # 12     ecut=    50.00 Ry     beta= 0.70
     Davidson diagonalization with overlap
     ethr =  4.67E-06,  avg # of iterations =  5.0

     negative rho (up, down):  4.028E-03 0.000E+00

     add environment contribution to local potential
     Polarization accuracy = 8.1E-12, # of iterations =  51

     total cpu time spent up to now is     4752.5 secs

     total energy              =   -3435.31333397 Ry
     estimated scf accuracy    <       0.01855800 Ry
     electrostatic embedding   =      -0.06486648 Ry
     cavitation energy         =       0.02191331 Ry
     PV energy                 =      -0.08119034 Ry
     correction to one-el term =     180.66913636 Ry

     iteration # 13     ecut=    50.00 Ry     beta= 0.70
     Davidson diagonalization with overlap
     ethr =  4.67E-06,  avg # of iterations =  2.0

     negative rho (up, down):  9.783E-04 0.000E+00

     add environment contribution to local potential
     Polarization accuracy = 6.4E-12, # of iterations =  49

     total cpu time spent up to now is     5081.1 secs

     total energy              =   -3435.31375982 Ry
     estimated scf accuracy    <       0.00831298 Ry
     electrostatic embedding   =      -0.06871177 Ry
     cavitation energy         =       0.02185932 Ry
     PV energy                 =      -0.08116706 Ry
     correction to one-el term =     181.06406221 Ry

     iteration # 14     ecut=    50.00 Ry     beta= 0.70
     Davidson diagonalization with overlap
     ethr =  2.27E-06,  avg # of iterations =  5.0

     negative rho (up, down):  2.884E-05 0.000E+00

     add environment contribution to local potential
     Polarization accuracy = 6.9E-12, # of iterations =  48

     total cpu time spent up to now is     5370.7 secs

     total energy              =   -3435.31428931 Ry
     estimated scf accuracy    <       0.00378151 Ry
     electrostatic embedding   =      -0.06615064 Ry
     cavitation energy         =       0.02172547 Ry
     PV energy                 =      -0.08139355 Ry
     correction to one-el term =     182.16788145 Ry

     iteration # 15     ecut=    50.00 Ry     beta= 0.70
     Davidson diagonalization with overlap
     ethr =  1.03E-06,  avg # of iterations =  6.0

     negative rho (up, down):  1.592E-06 0.000E+00

     add environment contribution to local potential
     Polarization accuracy = 4.8E-12, # of iterations =  46

     total cpu time spent up to now is     5614.7 secs

     total energy              =   -3435.31480196 Ry
     estimated scf accuracy    <       0.00156263 Ry
     electrostatic embedding   =      -0.06420234 Ry
     cavitation energy         =       0.02164015 Ry
     PV energy                 =      -0.08155792 Ry
     correction to one-el term =     183.05620900 Ry

     iteration # 16     ecut=    50.00 Ry     beta= 0.70
     Davidson diagonalization with overlap
     ethr =  4.27E-07,  avg # of iterations =  7.0

     negative rho (up, down):  9.381E-06 0.000E+00

     add environment contribution to local potential
     Polarization accuracy = 5.7E-12, # of iterations =  46

     total cpu time spent up to now is     5991.4 secs

     total energy              =   -3435.31520795 Ry
     estimated scf accuracy    <       0.00094670 Ry
     electrostatic embedding   =      -0.06248427 Ry
     cavitation energy         =       0.02153538 Ry
     PV energy                 =      -0.08173353 Ry
     correction to one-el term =     184.50508232 Ry

     iteration # 17     ecut=    50.00 Ry     beta= 0.70
     Davidson diagonalization with overlap
     ethr =  2.59E-07,  avg # of iterations =  7.0

     negative rho (up, down):  3.090E-05 0.000E+00

     add environment contribution to local potential
     Polarization accuracy = 8.8E-12, # of iterations =  45

     total cpu time spent up to now is     6316.3 secs

     total energy              =   -3435.31538079 Ry
     estimated scf accuracy    <       0.00012023 Ry
     electrostatic embedding   =      -0.06021905 Ry
     cavitation energy         =       0.02148581 Ry
     PV energy                 =      -0.08185303 Ry
     correction to one-el term =     185.15148374 Ry

     iteration # 18     ecut=    50.00 Ry     beta= 0.70
     Davidson diagonalization with overlap
     ethr =  3.29E-08,  avg # of iterations =  6.0

     negative rho (up, down):  8.081E-04 0.000E+00

     add environment contribution to local potential
     Polarization accuracy = 5.7E-12, # of iterations =  46

     total cpu time spent up to now is     6620.8 secs

     total energy              =   -3435.31540954 Ry
     estimated scf accuracy    <       0.00006889 Ry
     electrostatic embedding   =      -0.05973765 Ry
     cavitation energy         =       0.02149870 Ry
     PV energy                 =      -0.08182797 Ry
     correction to one-el term =     185.30463542 Ry

     iteration # 19     ecut=    50.00 Ry     beta= 0.70
     Davidson diagonalization with overlap
     ethr =  1.88E-08,  avg # of iterations =  3.0

     negative rho (up, down):  1.801E-03 0.000E+00

     add environment contribution to local potential
     Polarization accuracy = 7.1E-12, # of iterations =  45

     total cpu time spent up to now is     6927.6 secs

     total energy              =   -3435.31544922 Ry
     estimated scf accuracy    <       0.00004814 Ry
     electrostatic embedding   =      -0.05859293 Ry
     cavitation energy         =       0.02150567 Ry
     PV energy                 =      -0.08182751 Ry
     correction to one-el term =     185.51195524 Ry

     iteration # 20     ecut=    50.00 Ry     beta= 0.70
     Davidson diagonalization with overlap
     ethr =  1.32E-08,  avg # of iterations =  5.0

     negative rho (up, down):  9.822E-04 0.000E+00

     add environment contribution to local potential
     Polarization accuracy = 5.6E-12, # of iterations =  46

     total cpu time spent up to now is     7271.5 secs

     total energy              =   -3435.31544220 Ry
     estimated scf accuracy    <       0.00002648 Ry
     electrostatic embedding   =      -0.05841910 Ry
     cavitation energy         =       0.02150911 Ry
     PV energy                 =      -0.08180805 Ry
     correction to one-el term =     185.59667987 Ry

     iteration # 21     ecut=    50.00 Ry     beta= 0.70
     Davidson diagonalization with overlap
     ethr =  7.23E-09,  avg # of iterations =  5.0

     negative rho (up, down):  6.288E-04 0.000E+00

     add environment contribution to local potential
     Polarization accuracy = 9.1E-12, # of iterations =  45

     total cpu time spent up to now is     7541.0 secs

     total energy              =   -3435.31544637 Ry
     estimated scf accuracy    <       0.00001232 Ry
     electrostatic embedding   =      -0.05782111 Ry
     cavitation energy         =       0.02152408 Ry
     PV energy                 =      -0.08178205 Ry
     correction to one-el term =     185.60771224 Ry

     iteration # 22     ecut=    50.00 Ry     beta= 0.70
     Davidson diagonalization with overlap
     ethr =  3.37E-09,  avg # of iterations =  3.0

     negative rho (up, down):  2.577E-04 0.000E+00

     add environment contribution to local potential
     Polarization accuracy = 9.4E-12, # of iterations =  45

     total cpu time spent up to now is     7909.0 secs

     total energy              =   -3435.31544721 Ry
     estimated scf accuracy    <       0.00000414 Ry
     electrostatic embedding   =      -0.05740505 Ry
     cavitation energy         =       0.02152796 Ry
     PV energy                 =      -0.08177410 Ry
     correction to one-el term =     185.62630630 Ry

     iteration # 23     ecut=    50.00 Ry     beta= 0.70
     Davidson diagonalization with overlap
     ethr =  1.13E-09,  avg # of iterations =  3.0

     negative rho (up, down):  9.595E-05 0.000E+00

     add environment contribution to local potential
     Polarization accuracy = 8.5E-12, # of iterations =  46

     total cpu time spent up to now is     8206.5 secs

     total energy              =   -3435.31544780 Ry
     estimated scf accuracy    <       0.00000399 Ry
     electrostatic embedding   =      -0.05723977 Ry
     cavitation energy         =       0.02153046 Ry
     PV energy                 =      -0.08177034 Ry
     correction to one-el term =     185.60854053 Ry

     iteration # 24     ecut=    50.00 Ry     beta= 0.70
     Davidson diagonalization with overlap
     ethr =  1.09E-09,  avg # of iterations =  2.0

     negative rho (up, down):  8.173E-05 0.000E+00

     add environment contribution to local potential
     Polarization accuracy = 9.1E-12, # of iterations =  46

     total cpu time spent up to now is     8551.6 secs

     total energy              =   -3435.31544779 Ry
     estimated scf accuracy    <       0.00000216 Ry
     electrostatic embedding   =      -0.05710218 Ry
     cavitation energy         =       0.02153182 Ry
     PV energy                 =      -0.08176840 Ry
     correction to one-el term =     185.59697788 Ry

     iteration # 25     ecut=    50.00 Ry     beta= 0.70
     Davidson diagonalization with overlap
     ethr =  5.91E-10,  avg # of iterations =  3.0

     negative rho (up, down):  4.047E-05 0.000E+00

     add environment contribution to local potential
     Polarization accuracy = 4.0E-12, # of iterations =  47

     total cpu time spent up to now is     8878.7 secs

     total energy              =   -3435.31544740 Ry
     estimated scf accuracy    <       0.00000105 Ry
     electrostatic embedding   =      -0.05686086 Ry
     cavitation energy         =       0.02153263 Ry
     PV energy                 =      -0.08176859 Ry
     correction to one-el term =     185.61361502 Ry

     iteration # 26     ecut=    50.00 Ry     beta= 0.70
     Davidson diagonalization with overlap
     ethr =  2.87E-10,  avg # of iterations =  3.0

     negative rho (up, down):  5.464E-05 0.000E+00

     add environment contribution to local potential
     Polarization accuracy = 4.4E-12, # of iterations =  46

     total cpu time spent up to now is     9174.5 secs

     total energy              =   -3435.31544749 Ry
     estimated scf accuracy    <       0.00000036 Ry
     electrostatic embedding   =      -0.05674651 Ry
     cavitation energy         =       0.02153268 Ry
     PV energy                 =      -0.08177102 Ry
     correction to one-el term =     185.61011419 Ry

     iteration # 27     ecut=    50.00 Ry     beta= 0.70
     Davidson diagonalization with overlap
     ethr =  9.91E-11,  avg # of iterations =  2.0

     negative rho (up, down):  7.543E-05 0.000E+00

     add environment contribution to local potential
     Polarization accuracy = 9.9E-12, # of iterations =  45

     total cpu time spent up to now is     9523.7 secs

     total energy              =   -3435.31544777 Ry
     estimated scf accuracy    <       0.00000018 Ry
     electrostatic embedding   =      -0.05675669 Ry
     cavitation energy         =       0.02153207 Ry
     PV energy                 =      -0.08177265 Ry
     correction to one-el term =     185.61426488 Ry

     iteration # 28     ecut=    50.00 Ry     beta= 0.70
     Davidson diagonalization with overlap
     ethr =  5.02E-11,  avg # of iterations =  2.0

     negative rho (up, down):  8.288E-05 0.000E+00

     add environment contribution to local potential
     Polarization accuracy = 4.1E-12, # of iterations =  47

     total cpu time spent up to now is     9849.0 secs

     total energy              =   -3435.31544802 Ry
     estimated scf accuracy    <       0.00000012 Ry
     electrostatic embedding   =      -0.05671222 Ry
     cavitation energy         =       0.02153171 Ry
     PV energy                 =      -0.08177433 Ry
     correction to one-el term =     185.62346069 Ry

     iteration # 29     ecut=    50.00 Ry     beta= 0.70
     Davidson diagonalization with overlap
     ethr =  3.31E-11,  avg # of iterations =  2.0

     negative rho (up, down):  1.265E-04 0.000E+00

     add environment contribution to local potential
     Polarization accuracy = 8.5E-12, # of iterations =  46

     total cpu time spent up to now is    10170.6 secs

     total energy              =   -3435.31544813 Ry
     estimated scf accuracy    <       0.00000010 Ry
     electrostatic embedding   =      -0.05670031 Ry
     cavitation energy         =       0.02153155 Ry
     PV energy                 =      -0.08177487 Ry
     correction to one-el term =     185.62635912 Ry

     iteration # 30     ecut=    50.00 Ry     beta= 0.70
     Davidson diagonalization with overlap
     ethr =  2.71E-11,  avg # of iterations =  1.0

     negative rho (up, down):  1.526E-04 0.000E+00

     add environment contribution to local potential
     Polarization accuracy = 4.2E-12, # of iterations =  47

     total cpu time spent up to now is    10475.5 secs

     total energy              =   -3435.31544855 Ry
     estimated scf accuracy    <       0.00000008 Ry
     electrostatic embedding   =      -0.05669014 Ry
     cavitation energy         =       0.02153096 Ry
     PV energy                 =      -0.08177626 Ry
     correction to one-el term =     185.63583390 Ry

     iteration # 31     ecut=    50.00 Ry     beta= 0.70
     Davidson diagonalization with overlap
     ethr =  2.18E-11,  avg # of iterations =  2.0

     negative rho (up, down):  1.574E-04 0.000E+00

     add environment contribution to local potential
     Polarization accuracy = 8.1E-12, # of iterations =  46

     total cpu time spent up to now is    10803.8 secs

     total energy              =   -3435.31544888 Ry
     estimated scf accuracy    <       0.00000007 Ry
     electrostatic embedding   =      -0.05667800 Ry
     cavitation energy         =       0.02153074 Ry
     PV energy                 =      -0.08177658 Ry
     correction to one-el term =     185.64110767 Ry

     iteration # 32     ecut=    50.00 Ry     beta= 0.70
     Davidson diagonalization with overlap
     ethr =  1.88E-11,  avg # of iterations =  1.0

     negative rho (up, down):  1.633E-04 0.000E+00

     add environment contribution to local potential
     Polarization accuracy = 8.4E-12, # of iterations =  46

     total cpu time spent up to now is    11137.9 secs

     total energy              =   -3435.31544900 Ry
     estimated scf accuracy    <       0.00000006 Ry
     electrostatic embedding   =      -0.05667886 Ry
     cavitation energy         =       0.02153070 Ry
     PV energy                 =      -0.08177642 Ry
     correction to one-el term =     185.64174282 Ry

     iteration # 33     ecut=    50.00 Ry     beta= 0.70
     Davidson diagonalization with overlap
     ethr =  1.69E-11,  avg # of iterations =  1.0

     negative rho (up, down):  1.642E-04 0.000E+00

     add environment contribution to local potential
     Polarization accuracy = 8.8E-12, # of iterations =  46

     total cpu time spent up to now is    11474.0 secs

     total energy              =   -3435.31544936 Ry
     estimated scf accuracy    <       0.00000006 Ry
     electrostatic embedding   =      -0.05667885 Ry
     cavitation energy         =       0.02153065 Ry
     PV energy                 =      -0.08177607 Ry
     correction to one-el term =     185.64249661 Ry

     iteration # 34     ecut=    50.00 Ry     beta= 0.70
     Davidson diagonalization with overlap
     ethr =  1.55E-11,  avg # of iterations =  2.0

     negative rho (up, down):  1.639E-04 0.000E+00

     add environment contribution to local potential
     Polarization accuracy = 8.2E-12, # of iterations =  46

     total cpu time spent up to now is    11749.0 secs

     total energy              =   -3435.31544978 Ry
     estimated scf accuracy    <       0.00000006 Ry
     electrostatic embedding   =      -0.05667433 Ry
     cavitation energy         =       0.02153060 Ry
     PV energy                 =      -0.08177592 Ry
     correction to one-el term =     185.64285743 Ry

     iteration # 35     ecut=    50.00 Ry     beta= 0.70
     Davidson diagonalization with overlap
     ethr =  1.55E-11,  avg # of iterations =  1.0

     negative rho (up, down):  1.564E-04 0.000E+00

     add environment contribution to local potential
     Polarization accuracy = 5.3E-12, # of iterations =  46

     total cpu time spent up to now is    12073.3 secs

     total energy              =   -3435.31544974 Ry
     estimated scf accuracy    <       0.00000005 Ry
     electrostatic embedding   =      -0.05667089 Ry
     cavitation energy         =       0.02153060 Ry
     PV energy                 =      -0.08177622 Ry
     correction to one-el term =     185.64309506 Ry

     iteration # 36     ecut=    50.00 Ry     beta= 0.70
     Davidson diagonalization with overlap
     ethr =  1.45E-11,  avg # of iterations =  2.0

     negative rho (up, down):  1.512E-04 0.000E+00

     add environment contribution to local potential
     Polarization accuracy = 9.2E-12, # of iterations =  45

     total cpu time spent up to now is    12409.1 secs

     total energy              =   -3435.31545169 Ry
     estimated scf accuracy    <       0.00000006 Ry
     electrostatic embedding   =      -0.05666949 Ry
     cavitation energy         =       0.02153062 Ry
     PV energy                 =      -0.08177530 Ry
     correction to one-el term =     185.64137901 Ry

     iteration # 37     ecut=    50.00 Ry     beta= 0.70
     Davidson diagonalization with overlap
     ethr =  1.45E-11,  avg # of iterations =  2.0

     negative rho (up, down):  1.448E-04 0.000E+00

     add environment contribution to local potential
     Polarization accuracy = 8.7E-12, # of iterations =  45

     total cpu time spent up to now is    12738.6 secs

     total energy              =   -3435.31545309 Ry
     estimated scf accuracy    <       0.00000005 Ry
     electrostatic embedding   =      -0.05666057 Ry
     cavitation energy         =       0.02153063 Ry
     PV energy                 =      -0.08177562 Ry
     correction to one-el term =     185.64111619 Ry

     iteration # 38     ecut=    50.00 Ry     beta= 0.70
     Davidson diagonalization with overlap
     ethr =  1.30E-11,  avg # of iterations =  5.0

     negative rho (up, down):  1.308E-04 0.000E+00

     add environment contribution to local potential
     Polarization accuracy = 4.5E-12, # of iterations =  46

     total cpu time spent up to now is    13092.3 secs

     total energy              =   -3435.31545664 Ry
     estimated scf accuracy    <       0.00000004 Ry
     electrostatic embedding   =      -0.05664962 Ry
     cavitation energy         =       0.02153065 Ry
     PV energy                 =      -0.08177593 Ry
     correction to one-el term =     185.64067693 Ry

     iteration # 39     ecut=    50.00 Ry     beta= 0.70
     Davidson diagonalization with overlap
     ethr =  1.12E-11,  avg # of iterations =  2.0

     negative rho (up, down):  1.342E-04 0.000E+00

     add environment contribution to local potential
     Polarization accuracy = 7.8E-12, # of iterations =  45

     total cpu time spent up to now is    13419.1 secs

     total energy              =   -3435.31545624 Ry
     estimated scf accuracy    <       0.00000003 Ry
     electrostatic embedding   =      -0.05665800 Ry
     cavitation energy         =       0.02153084 Ry
     PV energy                 =      -0.08177598 Ry
     correction to one-el term =     185.63825032 Ry

     iteration # 40     ecut=    50.00 Ry     beta= 0.70
     Davidson diagonalization with overlap
     ethr =  7.40E-12,  avg # of iterations =  2.5

     negative rho (up, down):  1.315E-04 0.000E+00

     add environment contribution to local potential
     Polarization accuracy = 8.0E-12, # of iterations =  45

     total cpu time spent up to now is    13727.8 secs

     total energy              =   -3435.31546023 Ry
     estimated scf accuracy    <       0.00000002 Ry
     electrostatic embedding   =      -0.05665086 Ry
     cavitation energy         =       0.02153082 Ry
     PV energy                 =      -0.08177609 Ry
     correction to one-el term =     185.63953280 Ry

     iteration # 41     ecut=    50.00 Ry     beta= 0.70
     Davidson diagonalization with overlap
     ethr =  5.58E-12,  avg # of iterations =  2.0

     negative rho (up, down):  1.295E-04 0.000E+00

     add environment contribution to local potential
     Polarization accuracy = 3.8E-12, # of iterations =  46

     total cpu time spent up to now is    13889.1 secs

     total energy              =   -3435.31546074 Ry
     estimated scf accuracy    <       0.00000002 Ry
     electrostatic embedding   =      -0.05665637 Ry
     cavitation energy         =       0.02153088 Ry
     PV energy                 =      -0.08177617 Ry
     correction to one-el term =     185.63903697 Ry

     iteration # 42     ecut=    50.00 Ry     beta= 0.70
     Davidson diagonalization with overlap
     ethr =  5.48E-12,  avg # of iterations =  4.0

     negative rho (up, down):  1.359E-04 0.000E+00

     add environment contribution to local potential
     Polarization accuracy = 8.9E-12, # of iterations =  46

     total cpu time spent up to now is    14179.2 secs

     total energy              =   -3435.31546324 Ry
     estimated scf accuracy    <       0.00000001 Ry
     electrostatic embedding   =      -0.05666288 Ry
     cavitation energy         =       0.02153094 Ry
     PV energy                 =      -0.08177620 Ry
     correction to one-el term =     185.63865104 Ry

     iteration # 43     ecut=    50.00 Ry     beta= 0.70
     Davidson diagonalization with overlap
     ethr =  3.81E-12,  avg # of iterations =  4.0

     negative rho (up, down):  1.408E-04 0.000E+00

     add environment contribution to local potential
     Polarization accuracy = 9.3E-12, # of iterations =  46

     total cpu time spent up to now is    14527.5 secs

     total energy              =   -3435.31546626 Ry
     estimated scf accuracy    <          5.2E-09 Ry
     electrostatic embedding   =      -0.05667370 Ry
     cavitation energy         =       0.02153092 Ry
     PV energy                 =      -0.08177585 Ry
     correction to one-el term =     185.63911012 Ry

     iteration # 44     ecut=    50.00 Ry     beta= 0.70
     Davidson diagonalization with overlap
     ethr =  1.42E-12,  avg # of iterations =  3.5

     negative rho (up, down):  1.493E-04 0.000E+00

     the potential shift due to the Gaussian-smeared nuclei is    -1.3136 ev

     total cpu time spent up to now is    14866.7 secs

     End of self-consistent calculation

          k = 0.2500 0.2573 0.0000 ( 35510 PWs)   bands (ev):

   -78.0561 -78.0443 -77.3801 -77.3689 -77.3588 -77.3474 -77.2961 -77.2850
   -77.2754 -77.2391 -77.1747 -77.0806 -48.6067 -48.5950 -47.8834 -47.8716
   -47.7542 -47.7430 -47.6874 -47.6757 -47.6314 -47.6200 -47.6140 -47.6028
   -47.5422 -47.4624 -47.4197 -47.2995 -47.2834 -47.2806 -47.2717 -47.2604
   -47.2245 -47.1990 -47.1878 -47.1775 -47.1663 -47.1523 -47.1415 -47.1404
   -47.1312 -47.1093 -47.0972 -47.0862 -47.0831 -47.0353 -47.0172 -46.9199
   -23.9356 -23.8719 -23.6153 -23.5997 -23.4637 -23.2992 -23.2560 -23.0974
   -23.0210 -22.9672 -22.9016 -22.8375 -22.7554 -22.7085 -22.6579 -22.6051
   -22.5340 -22.5208 -22.5072 -22.4616 -22.4429 -22.4085 -22.3411 -22.3307
   -22.1918 -22.1641 -21.7452 -21.6924 -12.3480 -12.0847 -11.7599 -11.7341
   -11.5720 -11.5353 -11.5084 -11.3739 -11.1550 -11.1157 -11.0020 -10.9283
   -10.8722 -10.7987 -10.7757 -10.7075 -10.6931 -10.6449 -10.5600 -10.5512
   -10.5374 -10.4617 -10.4275 -10.4256 -10.3168 -10.1941 -10.0735  -9.8756
    -9.7810  -9.7678  -9.5948  -9.5100  -9.4427  -9.3806  -9.3078  -9.2173
    -9.0830  -9.0564  -9.0359  -8.8947  -8.8659  -8.7412  -8.6824  -8.6044
    -8.5768  -8.5041  -8.4112  -8.3401  -8.3102  -8.2200  -8.1399  -8.1196
    -8.1172  -8.0827  -8.0632  -7.9322  -7.9286  -7.8479  -7.8395  -7.7464
    -7.7078  -7.6040  -7.5920  -7.4592  -7.3551  -7.3139  -7.2660  -7.0978
    -7.0312  -7.0184  -6.9087  -6.8019  -6.7892  -6.6549  -6.6336  -6.5802
    -6.5312  -6.5229  -6.4177  -6.2715  -6.2556  -6.0824  -5.9993  -5.9325
    -4.8979  -4.8592  -4.8406  -4.7295  -4.7129  -4.6551  -4.6214  -4.6045
    -4.5551  -4.5449  -4.5102  -4.4277  -4.4093  -4.3882  -4.3442  -4.3392
    -4.2536  -4.2087  -4.1977  -4.0938  -4.0353  -4.0028  -3.8178  -3.7926
    -3.5910  -3.5864  -3.5197  -3.3295  -3.2217  -3.0578  -3.0510  -3.0095
    -2.9802  -2.9452  -2.7767  -2.5779  -1.8269  -1.8152  -1.7179  -1.6077
    -1.4106  -1.2468  -1.1906  -0.5604  -0.4564  -0.3603  -0.3034  -0.2023
    -0.0918  -0.0435   0.0100   0.0409   0.2637   0.3843   0.5108   0.7396
     0.8457   0.8570   0.9742   1.1585

          k =-0.2500 0.2573 0.0000 ( 35510 PWs)   bands (ev):

   -78.0561 -78.0443 -77.3801 -77.3689 -77.3588 -77.3474 -77.2961 -77.2850
   -77.2754 -77.2391 -77.1747 -77.0806 -48.6067 -48.5950 -47.8834 -47.8716
   -47.7542 -47.7430 -47.6874 -47.6756 -47.6314 -47.6200 -47.6141 -47.6029
   -47.5422 -47.4624 -47.4197 -47.2998 -47.2846 -47.2797 -47.2715 -47.2598
   -47.2246 -47.1991 -47.1879 -47.1777 -47.1665 -47.1521 -47.1415 -47.1403
   -47.1313 -47.1092 -47.0972 -47.0862 -47.0831 -47.0352 -47.0172 -46.9199
   -23.9368 -23.8732 -23.6133 -23.5977 -23.4630 -23.2988 -23.2583 -23.0963
   -23.0211 -22.9677 -22.9038 -22.8357 -22.7575 -22.7113 -22.6501 -22.6017
   -22.5398 -22.5283 -22.5080 -22.4560 -22.4386 -22.4085 -22.3435 -22.3329
   -22.1902 -22.1631 -21.7451 -21.6929 -12.3470 -12.0826 -11.7350 -11.7139
   -11.5732 -11.5643 -11.5336 -11.3790 -11.1593 -11.1282 -10.9880 -10.9391
   -10.8789 -10.8079 -10.7756 -10.6980 -10.6788 -10.6298 -10.5821 -10.5393
   -10.5372 -10.4909 -10.4082 -10.4046 -10.3354 -10.2109 -10.0271  -9.9013
    -9.8190  -9.6995  -9.5705  -9.4813  -9.4533  -9.3690  -9.3371  -9.2009
    -9.1217  -9.0469  -9.0072  -8.9202  -8.8891  -8.7071  -8.6971  -8.6081
    -8.5768  -8.4683  -8.4478  -8.4149  -8.3370  -8.2152  -8.1793  -8.1010
    -8.0974  -8.0533  -8.0157  -7.9703  -7.9086  -7.8257  -7.8216  -7.7712
    -7.6855  -7.5891  -7.5753  -7.4965  -7.3618  -7.2760  -7.2503  -7.1225
    -7.0749  -6.9884  -6.9421  -6.7944  -6.7920  -6.6989  -6.6537  -6.5646
    -6.5005  -6.4870  -6.4125  -6.2976  -6.2617  -6.0555  -6.0247  -5.9311
    -4.9103  -4.8497  -4.8325  -4.7667  -4.7156  -4.6518  -4.6338  -4.5783
    -4.5275  -4.5199  -4.4942  -4.4539  -4.4246  -4.3708  -4.3493  -4.2890
    -4.2713  -4.2483  -4.1700  -4.0936  -4.0527  -3.9942  -3.8256  -3.8039
    -3.6150  -3.5801  -3.5012  -3.3288  -3.2199  -3.0707  -3.0633  -3.0053
    -2.9802  -2.9385  -2.7670  -2.5843  -1.8228  -1.8085  -1.7177  -1.6118
    -1.4101  -1.2468  -1.1891  -0.5540  -0.4608  -0.3592  -0.2998  -0.2124
    -0.0806  -0.0470  -0.0061   0.0438   0.2708   0.3841   0.5181   0.7390
     0.8291   0.8532   0.9744   1.1576

     the Fermi energy is    -3.8504 ev

!    total energy              =   -3435.31546697 Ry
     estimated scf accuracy    <          7.5E-10 Ry
     smearing contrib. (-TS)   =       0.07390930 Ry
     internal energy E=F+TS    =   -3435.38937626 Ry

     The total energy is F=E-TS. E is the sum of the following terms:
     one-electron contribution =  -25207.52518057 Ry
     hartree contribution      =   12588.62665947 Ry
     xc contribution           =    -447.89419282 Ry
     ewald contribution        =    9712.38387439 Ry
     one-center paw contrib.   =    -266.50310478 Ry
     electrostatic embedding   =      -0.05667521 Ry
     cavitation energy         =       0.02153085 Ry
     PV energy                 =      -0.08177577 Ry
     correction to one-el term =     185.63948818 Ry

     WARNING: you are using the parabolic pbc correction;
              the potential shift above must be added to 
              band and Fermi energies.

     convergence has been achieved in  44 iterations

     negative rho (up, down):  1.493E-04 0.000E+00

     Forces acting on atoms (cartesian axes, Ry/au):

     atom    1 type  1   force =     0.00437916    0.00054096   -0.00866534
     atom    2 type  1   force =    -0.00077996    0.00020733   -0.00970956
     atom    3 type  1   force =     0.00001554   -0.06812559    0.03818489
     atom    4 type  1   force =    -0.00007470    0.00283907    0.00610837
     atom    5 type  2   force =     0.00258129    0.00179775   -0.00484246
     atom    6 type  2   force =    -0.00177061   -0.00095857   -0.00413026
     atom    7 type  1   force =    -0.00103108    0.02542130    0.00264495
     atom    8 type  1   force =     0.00180687    0.01613715    0.00274221
     atom    9 type  2   force =     0.00055369   -0.00259119   -0.00142118
     atom   10 type  2   force =    -0.00209597    0.00654511   -0.00026532
     atom   11 type  1   force =     0.00240900   -0.02634866    0.00023967
     atom   12 type  1   force =    -0.00156417   -0.01513432   -0.00033445
     atom   13 type  1   force =    -0.00076070   -0.00020373    0.00589022
     atom   14 type  1   force =     0.00071814   -0.00098669    0.00138781
     atom   15 type  1   force =    -0.00123299   -0.00018351   -0.00006953
     atom   16 type  1   force =     0.00139288    0.00013306    0.00437075
     atom   17 type  2   force =     0.01298460    0.00287207    0.00000000
     atom   18 type  2   force =    -0.01152361   -0.00068076    0.00000000
     atom   19 type  1   force =    -0.00462497   -0.01149310    0.00000000
     atom   20 type  1   force =     0.00240766   -0.03637702    0.00000000
     atom   21 type  2   force =    -0.00467515   -0.00225163    0.00000000
     atom   22 type  2   force =     0.00759648   -0.00203082    0.00000000
     atom   23 type  1   force =    -0.00282873    0.01416303    0.00000000
     atom   24 type  1   force =     0.00064647    0.03862189    0.00000000
     atom   25 type  1   force =    -0.00123299   -0.00018351    0.00006953
     atom   26 type  1   force =     0.00139288    0.00013306   -0.00437075
     atom   27 type  1   force =    -0.00076070   -0.00020373   -0.00589022
     atom   28 type  1   force =     0.00071814   -0.00098669   -0.00138781
     atom   29 type  2   force =     0.00258129    0.00179775    0.00484246
     atom   30 type  2   force =    -0.00177061   -0.00095857    0.00413026
     atom   31 type  1   force =    -0.00103108    0.02542130   -0.00264495
     atom   32 type  1   force =     0.00180687    0.01613715   -0.00274221
     atom   33 type  2   force =     0.00055369   -0.00259119    0.00142118
     atom   34 type  2   force =    -0.00209597    0.00654511    0.00026532
     atom   35 type  1   force =     0.00240900   -0.02634866   -0.00023967
     atom   36 type  1   force =    -0.00156417   -0.01513432    0.00033445
     atom   37 type  1   force =     0.00001554   -0.06812559   -0.03818489
     atom   38 type  1   force =    -0.00007470    0.00283907   -0.00610837
     atom   39 type  1   force =     0.00437916    0.00054096    0.00866534
     atom   40 type  1   force =    -0.00077996    0.00020733    0.00970956
     atom   41 type  3   force =    -0.00441892   -0.00028798    0.00115661
     atom   42 type  3   force =    -0.00441892   -0.00028798   -0.00115661
     atom   43 type  3   force =    -0.00005337    0.06137761   -0.03840620
     atom   44 type  3   force =    -0.00005337    0.06137761    0.03840620
     atom   45 type  3   force =    -0.00006549   -0.00159093   -0.00676415
     atom   46 type  3   force =    -0.00006549   -0.00159093    0.00676415
     The non-local contrib.  to forces
     atom    1 type  1   force =     1.69879726    0.29139837    0.41257158
     atom    2 type  1   force =     0.03032833   -0.01048851    1.21127236
     atom    3 type  1   force =     0.00833595    1.42186846    0.04775413
     atom    4 type  1   force =    -0.02361937   -0.56286244   -0.83827365
     atom    5 type  2   force =    -0.01648141   -0.00079840    0.04432174
     atom    6 type  2   force =     0.01507782   -0.00085300    0.04305448
     atom    7 type  1   force =     0.05501253    0.00739238   -0.12021087
     atom    8 type  1   force =    -0.12711384    0.03288013   -0.04668074
     atom    9 type  2   force =     0.00986286    0.00101733    0.03664611
     atom   10 type  2   force =    -0.01038223    0.00974247   -0.04501142
     atom   11 type  1   force =    -0.03901527   -0.00803909    0.00433168
     atom   12 type  1   force =    -0.02344798   -0.05068985    0.05672818
     atom   13 type  1   force =    -0.01780031   -0.02303043   -0.04437837
     atom   14 type  1   force =     0.01419228    0.07064351   -0.02196556
     atom   15 type  1   force =    -0.01363662   -0.03450246   -0.02396987
     atom   16 type  1   force =    -0.00581716    0.00396825    0.24678703
     atom   17 type  2   force =     0.00193851    0.00431060    0.00000000
     atom   18 type  2   force =    -0.00696377   -0.00478681    0.00000000
     atom   19 type  1   force =     0.05428818    0.01913373    0.00000000
     atom   20 type  1   force =    -0.04321187   -0.03985777    0.00000000
     atom   21 type  2   force =     0.00345140   -0.00161701    0.00000000
     atom   22 type  2   force =    -0.00212192   -0.00202838    0.00000000
     atom   23 type  1   force =     0.02082697   -0.03305642    0.00000000
     atom   24 type  1   force =    -0.01101738    0.03155753    0.00000000
     atom   25 type  1   force =    -0.01363662   -0.03450246    0.02396987
     atom   26 type  1   force =    -0.00581716    0.00396825   -0.24678703
     atom   27 type  1   force =    -0.01780031   -0.02303043    0.04437837
     atom   28 type  1   force =     0.01419228    0.07064351    0.02196556
     atom   29 type  2   force =    -0.01648141   -0.00079840   -0.04432174
     atom   30 type  2   force =     0.01507782   -0.00085300   -0.04305448
     atom   31 type  1   force =     0.05501253    0.00739238    0.12021087
     atom   32 type  1   force =    -0.12711384    0.03288013    0.04668074
     atom   33 type  2   force =     0.00986286    0.00101733   -0.03664611
     atom   34 type  2   force =    -0.01038223    0.00974247    0.04501142
     atom   35 type  1   force =    -0.03901527   -0.00803909   -0.00433168
     atom   36 type  1   force =    -0.02344798   -0.05068985   -0.05672818
     atom   37 type  1   force =     0.00833595    1.42186846   -0.04775413
     atom   38 type  1   force =    -0.02361937   -0.56286244    0.83827365
     atom   39 type  1   force =     1.69879726    0.29139837   -0.41257158
     atom   40 type  1   force =     0.03032833   -0.01048851   -1.21127236
     atom   41 type  3   force =    -0.09621994   -0.01543268    0.03586086
     atom   42 type  3   force =    -0.09621994   -0.01543268   -0.03586086
     atom   43 type  3   force =    -0.00005118   -0.10020053    0.06438020
     atom   44 type  3   force =    -0.00005118   -0.10020053   -0.06438020
     atom   45 type  3   force =     0.00100491    0.03148011    0.10914603
     atom   46 type  3   force =     0.00100491    0.03148011   -0.10914603
     The ionic contribution  to forces
     atom    1 type  1   force =    -3.38595993   -0.17854569  -94.67082486
     atom    2 type  1   force =     0.11855590    0.35475573  -99.54079682
     atom    3 type  1   force =    -0.19153795   -3.48025271  -91.41399302
     atom    4 type  1   force =     0.21268412    0.65919907  -89.92145740
     atom    5 type  2   force =     0.18885154   -1.13538211 -167.25933983
     atom    6 type  2   force =    -0.20924909   -1.29607747 -168.54131649
     atom    7 type  1   force =     0.50005727   -0.02938378  -59.88923822
     atom    8 type  1   force =    -0.10467826   -0.46424844  -62.10247724
     atom    9 type  2   force =    -0.88734535    1.45350185 -165.57143328
     atom   10 type  2   force =     0.83110793    1.16210192 -171.73242551
     atom   11 type  1   force =     0.77432817    0.21531023  -63.48405212
     atom   12 type  1   force =    -0.38264816    0.81846403  -64.80186906
     atom   13 type  1   force =     0.07921666   -0.16993359  -37.04511538
     atom   14 type  1   force =    -0.06097348   -0.56054264  -37.19395211
     atom   15 type  1   force =    -0.06821938    0.10535312  -24.68730944
     atom   16 type  1   force =     0.15564863    0.31373192  -27.56823241
     atom   17 type  2   force =     0.35216960    0.41199917   -0.00044984
     atom   18 type  2   force =    -0.32134636    0.27937042   -0.00045877
     atom   19 type  1   force =    -0.32198007    1.32815347   -0.00008268
     atom   20 type  1   force =     0.24964240    0.73475288   -0.00007945
     atom   21 type  2   force =     0.87766285   -0.14033796   -0.00026583
     atom   22 type  2   force =    -1.11962321   -0.16745601   -0.00025504
     atom   23 type  1   force =    -0.10050125   -1.23481895   -0.00008134
     atom   24 type  1   force =     0.01864931   -0.65998352   -0.00007869
     atom   25 type  1   force =    -0.06821905    0.10535161   24.68709745
     atom   26 type  1   force =     0.15565615    0.31373296   27.56810392
     atom   27 type  1   force =     0.07922008   -0.16993232   37.04541115
     atom   28 type  1   force =    -0.06097627   -0.56055176   37.19426131
     atom   29 type  2   force =     0.18886297   -1.13537508  167.25962178
     atom   30 type  2   force =    -0.20925983   -1.29607032  168.54159742
     atom   31 type  1   force =     0.50005936   -0.02941564   59.88930060
     atom   32 type  1   force =    -0.10467922   -0.46427604   62.10254338
     atom   33 type  2   force =    -0.88735773    1.45350503  165.57156043
     atom   34 type  2   force =     0.83111401    1.16209892  171.73257805
     atom   35 type  1   force =     0.77432811    0.21534130   63.48411281
     atom   36 type  1   force =    -0.38264725    0.81849021   64.80193416
     atom   37 type  1   force =    -0.19153998   -3.48051077   91.41406808
     atom   38 type  1   force =     0.21268885    0.65933030   89.92125100
     atom   39 type  1   force =    -3.38603018   -0.17855047   94.67094387
     atom   40 type  1   force =     0.11855932    0.35475568   99.54086626
     atom   41 type  3   force =     2.66412836    0.55238660  -16.18295177
     atom   42 type  3   force =     2.66419878    0.55239761   16.18295302
     atom   43 type  3   force =    -0.06111338    2.30526842  -17.02029428
     atom   44 type  3   force =    -0.06111248    2.30550605   17.02029534
     atom   45 type  3   force =     0.00980589   -0.90154009  -18.11711965
     atom   46 type  3   force =     0.00980158   -0.90167314   18.11745048
     The local contribution  to forces
     atom    1 type  1   force =     1.63042939   -0.06655573   94.20674880
     atom    2 type  1   force =    -0.09172165   -0.36664604   98.27706589
     atom    3 type  1   force =     0.16792260    1.97028816   91.40164808
     atom    4 type  1   force =    -0.17622775   -0.07271211   90.86403966
     atom    5 type  2   force =    -0.20346821    1.13393046  167.25729597
     atom    6 type  2   force =     0.22710257    1.29061975  168.51628897
     atom    7 type  1   force =    -0.55904734    0.05876985   60.01519160
     atom    8 type  1   force =     0.23610045    0.46385856   62.13771731
     atom    9 type  2   force =     0.84939396   -1.44180579  165.48532940
     atom   10 type  2   force =    -0.79046116   -1.17249533  171.74631054
     atom   11 type  1   force =    -0.74588915   -0.24463626   63.48144590
     atom   12 type  1   force =     0.41707818   -0.79883000   64.72505003
     atom   13 type  1   force =    -0.06449606    0.19102835   37.09465629
     atom   14 type  1   force =     0.04981630    0.48993065   37.22417856
     atom   15 type  1   force =     0.07891006   -0.07096062   24.70760766
     atom   16 type  1   force =    -0.14683680   -0.31755617   27.32737081
     atom   17 type  2   force =    -0.34292984   -0.41408237   -0.00580066
     atom   18 type  2   force =     0.31869931   -0.27527843   -0.00580491
     atom   19 type  1   force =     0.26281601   -1.35778405   -0.00241214
     atom   20 type  1   force =    -0.20362589   -0.73124402   -0.00243786
     atom   21 type  2   force =    -0.88774048    0.13997972   -0.00597183
     atom   22 type  2   force =     1.13146631    0.16777822   -0.00601890
     atom   23 type  1   force =     0.07606268    1.28083762   -0.00241796
     atom   24 type  1   force =    -0.00610093    0.66687825   -0.00244130
     atom   25 type  1   force =     0.07891177   -0.07096387  -24.70936323
     atom   26 type  1   force =    -0.14682543   -0.31757067  -27.32911097
     atom   27 type  1   force =    -0.06449734    0.19103263  -37.09643327
     atom   28 type  1   force =     0.04981786    0.48992701  -37.22593347
     atom   29 type  2   force =    -0.20345669    1.13393841 -167.26333441
     atom   30 type  2   force =     0.22709223    1.29063390 -168.52230811
     atom   31 type  1   force =    -0.55903545    0.05879252  -60.01760609
     atom   32 type  1   force =     0.23608544    0.46387799  -62.14015099
     atom   33 type  2   force =     0.84940992   -1.44186095 -165.49115346
     atom   34 type  2   force =    -0.79050237   -1.17248630 -171.75198983
     atom   35 type  1   force =    -0.74586021   -0.24466533  -63.48387732
     atom   36 type  1   force =     0.41704853   -0.79885253  -64.72748885
     atom   37 type  1   force =     0.16792594    1.97043067  -91.40543263
     atom   38 type  1   force =    -0.17623071   -0.07277181  -90.86773419
     atom   39 type  1   force =     1.63046354   -0.06658698  -94.20833471
     atom   40 type  1   force =    -0.09177383   -0.36663615  -98.27846208
     atom   41 type  3   force =    -2.58387732   -0.53392724   16.15266055
     atom   42 type  3   force =    -2.58387732   -0.53392724  -16.15266055
     atom   43 type  3   force =     0.05650141   -2.14229942   16.92335387
     atom   44 type  3   force =     0.05650141   -2.14229942  -16.92335387
     atom   45 type  3   force =    -0.00771614    0.87650632   18.05590970
     atom   46 type  3   force =    -0.00771614    0.87650632  -18.05590970
     The core correction contribution to forces
     atom    1 type  1   force =    -0.01704180   -0.00297130   -0.00440146
     atom    2 type  1   force =    -0.00007657    0.00008301   -0.01001749
     atom    3 type  1   force =    -0.00009684   -0.01317960   -0.00150960
     atom    4 type  1   force =     0.00024970    0.00559798    0.00799231
     atom    5 type  2   force =     0.00000000    0.00000000    0.00000000
     atom    6 type  2   force =     0.00000000    0.00000000    0.00000000
     atom    7 type  1   force =    -0.00082840   -0.00090075    0.00119303
     atom    8 type  1   force =     0.00154159   -0.00087150    0.00048096
     atom    9 type  2   force =     0.00000000    0.00000000    0.00000000
     atom   10 type  2   force =     0.00000000    0.00000000    0.00000000
     atom   11 type  1   force =     0.00010821    0.00099485   -0.00000437
     atom   12 type  1   force =     0.00052881    0.00108449   -0.00056757
     atom   13 type  1   force =     0.00014913    0.00030315    0.00026335
     atom   14 type  1   force =    -0.00011862   -0.00079732    0.00023782
     atom   15 type  1   force =     0.00020909    0.00044810   -0.00002238
     atom   16 type  1   force =     0.00002816   -0.00015067   -0.00339092
     atom   17 type  2   force =     0.00000000    0.00000000    0.00000000
     atom   18 type  2   force =     0.00000000    0.00000000    0.00000000
     atom   19 type  1   force =    -0.00051819   -0.00002364   -0.00000192
     atom   20 type  1   force =     0.00038885    0.00107587   -0.00000206
     atom   21 type  2   force =     0.00000000    0.00000000    0.00000000
     atom   22 type  2   force =     0.00000000    0.00000000    0.00000000
     atom   23 type  1   force =    -0.00019891    0.00014410   -0.00000187
     atom   24 type  1   force =     0.00010100   -0.00101699   -0.00000202
     atom   25 type  1   force =     0.00020904    0.00044827    0.00002017
     atom   26 type  1   force =     0.00002824   -0.00015076    0.00338888
     atom   27 type  1   force =     0.00014911    0.00030316   -0.00026553
     atom   28 type  1   force =    -0.00011860   -0.00079748   -0.00023998
     atom   29 type  2   force =     0.00000000    0.00000000    0.00000000
     atom   30 type  2   force =     0.00000000    0.00000000    0.00000000
     atom   31 type  1   force =    -0.00082840   -0.00090072   -0.00119469
     atom   32 type  1   force =     0.00154156   -0.00087138   -0.00048268
     atom   33 type  2   force =     0.00000000    0.00000000    0.00000000
     atom   34 type  2   force =     0.00000000    0.00000000    0.00000000
     atom   35 type  1   force =     0.00010832    0.00099478    0.00000246
     atom   36 type  1   force =     0.00052872    0.00108437    0.00056575
     atom   37 type  1   force =    -0.00009677   -0.01318151    0.00150586
     atom   38 type  1   force =     0.00024968    0.00559893   -0.00799789
     atom   39 type  1   force =    -0.01704256   -0.00297136    0.00439903
     atom   40 type  1   force =    -0.00007682    0.00008312    0.01001570
     atom   41 type  3   force =     0.00000000    0.00000000    0.00000000
     atom   42 type  3   force =     0.00000000    0.00000000    0.00000000
     atom   43 type  3   force =     0.00000000    0.00000000    0.00000000
     atom   44 type  3   force =     0.00000000    0.00000000    0.00000000
     atom   45 type  3   force =     0.00000000    0.00000000    0.00000000
     atom   46 type  3   force =     0.00000000    0.00000000    0.00000000
     The Hubbard contrib.    to forces
     atom    1 type  1   force =     0.00000000    0.00000000    0.00000000
     atom    2 type  1   force =     0.00000000    0.00000000    0.00000000
     atom    3 type  1   force =     0.00000000    0.00000000    0.00000000
     atom    4 type  1   force =     0.00000000    0.00000000    0.00000000
     atom    5 type  2   force =     0.00000000    0.00000000    0.00000000
     atom    6 type  2   force =     0.00000000    0.00000000    0.00000000
     atom    7 type  1   force =     0.00000000    0.00000000    0.00000000
     atom    8 type  1   force =     0.00000000    0.00000000    0.00000000
     atom    9 type  2   force =     0.00000000    0.00000000    0.00000000
     atom   10 type  2   force =     0.00000000    0.00000000    0.00000000
     atom   11 type  1   force =     0.00000000    0.00000000    0.00000000
     atom   12 type  1   force =     0.00000000    0.00000000    0.00000000
     atom   13 type  1   force =     0.00000000    0.00000000    0.00000000
     atom   14 type  1   force =     0.00000000    0.00000000    0.00000000
     atom   15 type  1   force =     0.00000000    0.00000000    0.00000000
     atom   16 type  1   force =     0.00000000    0.00000000    0.00000000
     atom   17 type  2   force =     0.00000000    0.00000000    0.00000000
     atom   18 type  2   force =     0.00000000    0.00000000    0.00000000
     atom   19 type  1   force =     0.00000000    0.00000000    0.00000000
     atom   20 type  1   force =     0.00000000    0.00000000    0.00000000
     atom   21 type  2   force =     0.00000000    0.00000000    0.00000000
     atom   22 type  2   force =     0.00000000    0.00000000    0.00000000
     atom   23 type  1   force =     0.00000000    0.00000000    0.00000000
     atom   24 type  1   force =     0.00000000    0.00000000    0.00000000
     atom   25 type  1   force =     0.00000000    0.00000000    0.00000000
     atom   26 type  1   force =     0.00000000    0.00000000    0.00000000
     atom   27 type  1   force =     0.00000000    0.00000000    0.00000000
     atom   28 type  1   force =     0.00000000    0.00000000    0.00000000
     atom   29 type  2   force =     0.00000000    0.00000000    0.00000000
     atom   30 type  2   force =     0.00000000    0.00000000    0.00000000
     atom   31 type  1   force =     0.00000000    0.00000000    0.00000000
     atom   32 type  1   force =     0.00000000    0.00000000    0.00000000
     atom   33 type  2   force =     0.00000000    0.00000000    0.00000000
     atom   34 type  2   force =     0.00000000    0.00000000    0.00000000
     atom   35 type  1   force =     0.00000000    0.00000000    0.00000000
     atom   36 type  1   force =     0.00000000    0.00000000    0.00000000
     atom   37 type  1   force =     0.00000000    0.00000000    0.00000000
     atom   38 type  1   force =     0.00000000    0.00000000    0.00000000
     atom   39 type  1   force =     0.00000000    0.00000000    0.00000000
     atom   40 type  1   force =     0.00000000    0.00000000    0.00000000
     atom   41 type  3   force =     0.00000000    0.00000000    0.00000000
     atom   42 type  3   force =     0.00000000    0.00000000    0.00000000
     atom   43 type  3   force =     0.00000000    0.00000000    0.00000000
     atom   44 type  3   force =     0.00000000    0.00000000    0.00000000
     atom   45 type  3   force =     0.00000000    0.00000000    0.00000000
     atom   46 type  3   force =     0.00000000    0.00000000    0.00000000
     The SCF correction term to forces
     atom    1 type  1   force =    -0.00000267    0.00000236   -0.00000949
     atom    2 type  1   force =    -0.00000016   -0.00000113   -0.00001398
     atom    3 type  1   force =    -0.00000141   -0.00000035   -0.00001341
     atom    4 type  1   force =     0.00000133    0.00000052   -0.00001920
     atom    5 type  2   force =    -0.00000871   -0.00000063   -0.00003460
     atom    6 type  2   force =     0.00000903   -0.00000055   -0.00003061
     atom    7 type  1   force =    -0.00000332    0.00001271   -0.00001425
     atom    8 type  1   force =     0.00000354    0.00000835   -0.00001400
     atom    9 type  2   force =    -0.00000024    0.00000088   -0.00003537
     atom   10 type  2   force =    -0.00000155   -0.00000030   -0.00005638
     atom   11 type  1   force =    -0.00000394   -0.00001292   -0.00001414
     atom   12 type  1   force =     0.00000413   -0.00000835   -0.00001378
     atom   13 type  1   force =    -0.00000325   -0.00000003   -0.00000322
     atom   14 type  1   force =     0.00000313   -0.00000031   -0.00000735
     atom   15 type  1   force =     0.00000232   -0.00000005   -0.00000427
     atom   16 type  1   force =    -0.00000216   -0.00000024   -0.00000441
     atom   17 type  2   force =     0.00000110   -0.00000041    0.00001490
     atom   18 type  2   force =    -0.00000019   -0.00000047    0.00001497
     atom   19 type  1   force =    -0.00000710    0.00000393    0.00000547
     atom   20 type  1   force =     0.00000695    0.00000132    0.00000550
     atom   21 type  2   force =    -0.00001184    0.00000035    0.00001472
     atom   22 type  2   force =     0.00001134    0.00000043    0.00001476
     atom   23 type  1   force =    -0.00000696   -0.00000394    0.00000550
     atom   24 type  1   force =     0.00000685   -0.00000130    0.00000552
     atom   25 type  1   force =     0.00000230   -0.00000003    0.00001355
     atom   26 type  1   force =    -0.00000214   -0.00000022    0.00001325
     atom   27 type  1   force =    -0.00000332   -0.00000007    0.00000984
     atom   28 type  1   force =     0.00000320   -0.00000034    0.00001406
     atom   29 type  2   force =    -0.00000864   -0.00000077    0.00003885
     atom   30 type  2   force =     0.00000896   -0.00000070    0.00003472
     atom   31 type  1   force =    -0.00000333    0.00001259    0.00001613
     atom   32 type  1   force =     0.00000355    0.00000821    0.00001563
     atom   33 type  2   force =    -0.00000036    0.00000103    0.00003957
     atom   34 type  2   force =    -0.00000142   -0.00000017    0.00005897
     atom   35 type  1   force =    -0.00000397   -0.00001276    0.00001562
     atom   36 type  1   force =     0.00000414   -0.00000818    0.00001513
     atom   37 type  1   force =    -0.00000147   -0.00000038    0.00001116
     atom   38 type  1   force =     0.00000139    0.00000047    0.00001705
     atom   39 type  1   force =    -0.00000267    0.00000238    0.00000657
     atom   40 type  1   force =    -0.00000014   -0.00000110    0.00001105
     atom   41 type  3   force =     0.00000031    0.00000013   -0.00000160
     atom   42 type  3   force =     0.00000029    0.00000012    0.00000109
     atom   43 type  3   force =    -0.00000006    0.00000077   -0.00000224
     atom   44 type  3   force =    -0.00000006    0.00000074    0.00000178
     atom   45 type  3   force =    -0.00000003   -0.00000028   -0.00000273
     atom   46 type  3   force =    -0.00000003   -0.00000028    0.00000221

     Total force =     0.175875     Total SCF correction =     0.000146

     BFGS Geometry Optimization
     Energy error            =      0.0E+00 Ry
     Gradient error          =      6.8E-02 Ry/Bohr

     number of scf cycles    =   1
     number of bfgs steps    =   0

     energy             new  =   -3435.3154669651 Ry

     new trust radius        =       0.0780972589 bohr
     new conv_thr            =       0.0000000010 Ry


ATOMIC_POSITIONS (crystal)
O             0.0099317226        0.4573009697        0.2706950746
O             0.4787537159        0.4968420340        0.2729455391
O            -0.0006362041        0.0077599679        0.3013127518
O             0.4974901410       -0.0029383064        0.3035174469
Ru            0.2486346610       -0.0036201283        0.3588138307
Ru            0.7483618206       -0.0038132131        0.3582556278
O             0.2493295777        0.3007853380        0.3609172308
O             0.7496962262        0.3031872287        0.3581077559
Ru            0.0006577038        0.4964666974        0.3583436055
Ru            0.5017920243        0.4939703360        0.3508540240
O             0.2405642770        0.6930654490        0.3564674076
O             0.7567021672        0.6892612910        0.3550236909
O            -0.0036205765       -0.0022417992        0.4112836573
O             0.5004738468       -0.0087534230        0.4121379943
O            -0.0000692491        0.5002010026        0.4462972583
O             0.4969302764        0.5016955901        0.4406428258
Ru           -0.0043340204       -0.0009675619        0.5000010000
Ru            0.5005719729       -0.0000107925        0.5000010000
O             0.2497499031        0.1889187186        0.5000010000
O             0.7461401762        0.1945997134        0.5000010000
Ru            0.2553236941        0.5004653317        0.5000010000
Ru            0.7441797010        0.4999435511        0.5000010000
O             0.2481160690        0.8110562146        0.5000010000
O             0.7480623394        0.8048445281        0.5000010000
O            -0.0000692491        0.5002010026        0.5537037417
O             0.4969302764        0.5016955901        0.5593581742
O            -0.0036205765       -0.0022417992        0.5887173427
O             0.5004738468       -0.0087534230        0.5878630057
Ru            0.2486346610       -0.0036201283        0.6411871693
Ru            0.7483618206       -0.0038132131        0.6417453722
O             0.2493295777        0.3007853380        0.6390837692
O             0.7496962262        0.3031872287        0.6418932441
Ru            0.0006577038        0.4964666974        0.6416573945
Ru            0.5017920243        0.4939703360        0.6491469760
O             0.2405642770        0.6930654490        0.6435335924
O             0.7567021672        0.6892612910        0.6449773091
O            -0.0006362041        0.0077599679        0.6986892482
O             0.4974901410       -0.0029383064        0.6964845531
O             0.0099317226        0.4573009697        0.7293059254
O             0.4787537159        0.4968420340        0.7270554609
H             0.1530346965        0.4808039224        0.2565109645
H             0.1530346965        0.4808039224        0.7434890355
H            -0.0003208353        0.1483045242        0.2767072299
H            -0.0003208353        0.1483045242        0.7232927701
H             0.4960240904        0.9522986676        0.2610901983
H             0.4960240904        0.9522986676        0.7389098017



     Writing config-only to output data dir /storage/home/mgm6007/ixd4/Maria/Strain0_Files/RuO2-110-0-025/RuO2-110-0-025.save/
     NEW-OLD atomic charge density approx. for the potential

     Check: negative core charge=   -0.000001

     negative rho (up, down):  1.467E-04 0.000E+00

     add environment contribution to local potential
     Polarization accuracy = 5.2E-12, # of iterations =  45

     total cpu time spent up to now is    15200.5 secs

     per-process dynamical memory:   224.1 Mb

     Self-consistent Calculation

     iteration #  1     ecut=    50.00 Ry     beta= 0.70
     Davidson diagonalization with overlap
     ethr =  1.00E-06,  avg # of iterations =  6.0

     negative rho (up, down):  1.618E-04 0.000E+00

     add environment contribution to local potential
     Polarization accuracy = 2.9E-12, # of iterations =  46

     total cpu time spent up to now is    15500.7 secs

     total energy              =   -3435.32164488 Ry
     estimated scf accuracy    <       0.01353798 Ry
     electrostatic embedding   =      -0.05603538 Ry
     cavitation energy         =       0.02151920 Ry
     PV energy                 =      -0.08184412 Ry
     correction to one-el term =     185.66014489 Ry

     iteration #  2     ecut=    50.00 Ry     beta= 0.70
     Davidson diagonalization with overlap
     ethr =  3.70E-06,  avg # of iterations =  2.0

     negative rho (up, down):  1.218E-04 0.000E+00

     add environment contribution to local potential
     Polarization accuracy = 4.8E-12, # of iterations =  46

     total cpu time spent up to now is    15888.3 secs

     total energy              =   -3435.32226433 Ry
     estimated scf accuracy    <       0.00557395 Ry
     electrostatic embedding   =      -0.05636327 Ry
     cavitation energy         =       0.02151884 Ry
     PV energy                 =      -0.08184005 Ry
     correction to one-el term =     185.67441531 Ry

     iteration #  3     ecut=    50.00 Ry     beta= 0.70
     Davidson diagonalization with overlap
     ethr =  1.52E-06,  avg # of iterations =  1.0

     negative rho (up, down):  1.037E-04 0.000E+00

     add environment contribution to local potential
     Polarization accuracy = 5.8E-12, # of iterations =  46

     total cpu time spent up to now is    16230.0 secs

     total energy              =   -3435.32249854 Ry
     estimated scf accuracy    <       0.00591704 Ry
     electrostatic embedding   =      -0.05653408 Ry
     cavitation energy         =       0.02151558 Ry
     PV energy                 =      -0.08184869 Ry
     correction to one-el term =     185.61393793 Ry

     iteration #  4     ecut=    50.00 Ry     beta= 0.70
     Davidson diagonalization with overlap
     ethr =  1.52E-06,  avg # of iterations =  1.0

     negative rho (up, down):  8.389E-05 0.000E+00

     add environment contribution to local potential
     Polarization accuracy = 2.5E-12, # of iterations =  47

     total cpu time spent up to now is    16547.4 secs

     total energy              =   -3435.32271939 Ry
     estimated scf accuracy    <       0.00046280 Ry
     electrostatic embedding   =      -0.05678108 Ry
     cavitation energy         =       0.02151499 Ry
     PV energy                 =      -0.08184926 Ry
     correction to one-el term =     185.56967612 Ry

     iteration #  5     ecut=    50.00 Ry     beta= 0.70
     Davidson diagonalization with overlap
     ethr =  1.26E-07,  avg # of iterations =  2.0

     negative rho (up, down):  6.988E-05 0.000E+00

     add environment contribution to local potential
     Polarization accuracy = 9.2E-12, # of iterations =  45

     total cpu time spent up to now is    16916.1 secs

     total energy              =   -3435.32274879 Ry
     estimated scf accuracy    <       0.00025943 Ry
     electrostatic embedding   =      -0.05704051 Ry
     cavitation energy         =       0.02151502 Ry
     PV energy                 =      -0.08184859 Ry
     correction to one-el term =     185.51437777 Ry

     iteration #  6     ecut=    50.00 Ry     beta= 0.70
     Davidson diagonalization with overlap
     ethr =  7.09E-08,  avg # of iterations =  1.0

     negative rho (up, down):  6.288E-05 0.000E+00

     add environment contribution to local potential
     Polarization accuracy = 9.8E-12, # of iterations =  46

     total cpu time spent up to now is    17257.8 secs

     total energy              =   -3435.32276540 Ry
     estimated scf accuracy    <       0.00004038 Ry
     electrostatic embedding   =      -0.05719227 Ry
     cavitation energy         =       0.02151556 Ry
     PV energy                 =      -0.08184882 Ry
     correction to one-el term =     185.46939591 Ry

     iteration #  7     ecut=    50.00 Ry     beta= 0.70
     Davidson diagonalization with overlap
     ethr =  1.10E-08,  avg # of iterations =  1.5

     negative rho (up, down):  5.621E-05 0.000E+00

     add environment contribution to local potential
     Polarization accuracy = 9.5E-12, # of iterations =  45

     total cpu time spent up to now is    17583.1 secs

[...]
     atom   31 type  1   force =    -0.62668883    0.70627201  -59.21175773
     atom   32 type  1   force =     0.53957993    0.77831475  -61.01704178
     atom   33 type  2   force =     0.72673706   -2.00289768 -165.21015483
     atom   34 type  2   force =    -0.87209795   -1.20521578 -172.02514341
     atom   35 type  1   force =    -0.43620691   -0.99696041  -63.96356932
     atom   36 type  1   force =     0.33405147   -1.17839762  -64.76082038
     atom   37 type  1   force =     0.12118153    2.06896016  -91.23359336
     atom   38 type  1   force =    -0.11942371    0.02115518  -90.55819995
     atom   39 type  1   force =     1.52118380   -0.03686652  -93.59013172
     atom   40 type  1   force =    -0.17012579   -0.22965829  -98.00159363
     atom   41 type  3   force =    -2.59868559   -0.72370185   16.14567690
     atom   42 type  3   force =    -2.59868559   -0.72370185  -16.14567690
     atom   43 type  3   force =     0.05177915   -1.81007132   16.55232563
     atom   44 type  3   force =     0.05177915   -1.81007132  -16.55232563
     atom   45 type  3   force =    -0.01733420    0.71078302   18.02753191
     atom   46 type  3   force =    -0.01733420    0.71078302  -18.02753191
     The core correction contribution to forces
     atom    1 type  1   force =    -0.01697364   -0.00378460   -0.00385840
     atom    2 type  1   force =     0.00002175   -0.00009464   -0.01032347
     atom    3 type  1   force =    -0.00002336   -0.01358669   -0.00234396
     atom    4 type  1   force =     0.00009585    0.00454559    0.00838055
     atom    5 type  2   force =     0.00000000    0.00000000    0.00000000
     atom    6 type  2   force =     0.00000000    0.00000000    0.00000000
     atom    7 type  1   force =    -0.00083436   -0.00065946    0.00166400
     atom    8 type  1   force =     0.00112689   -0.00060915    0.00100069
     atom    9 type  2   force =     0.00000000    0.00000000    0.00000000
     atom   10 type  2   force =     0.00000000    0.00000000    0.00000000
     atom   11 type  1   force =    -0.00032566    0.00075331   -0.00009162
     atom   12 type  1   force =     0.00057924    0.00083472   -0.00055877
     atom   13 type  1   force =    -0.00003398    0.00014450    0.00028206
     atom   14 type  1   force =     0.00002749   -0.00082272    0.00018553
     atom   15 type  1   force =     0.00021732    0.00055188    0.00014604
     atom   16 type  1   force =     0.00003215   -0.00001078   -0.00365947
     atom   17 type  2   force =     0.00000000    0.00000000    0.00000000
     atom   18 type  2   force =     0.00000000    0.00000000    0.00000000
     atom   19 type  1   force =    -0.00046570    0.00002135   -0.00000196
     atom   20 type  1   force =     0.00034052    0.00008401   -0.00000199
     atom   21 type  2   force =     0.00000000    0.00000000    0.00000000
     atom   22 type  2   force =     0.00000000    0.00000000    0.00000000
     atom   23 type  1   force =    -0.00027143    0.00006664   -0.00000188
     atom   24 type  1   force =     0.00014216   -0.00004466   -0.00000190
     atom   25 type  1   force =     0.00021728    0.00055206   -0.00014831
     atom   26 type  1   force =     0.00003218   -0.00001085    0.00365741
     atom   27 type  1   force =    -0.00003399    0.00014447   -0.00028427
     atom   28 type  1   force =     0.00002750   -0.00082289   -0.00018772
     atom   29 type  2   force =     0.00000000    0.00000000    0.00000000
     atom   30 type  2   force =     0.00000000    0.00000000    0.00000000
     atom   31 type  1   force =    -0.00083437   -0.00065943   -0.00166561
     atom   32 type  1   force =     0.00112686   -0.00060905   -0.00100240
     atom   33 type  2   force =     0.00000000    0.00000000    0.00000000
     atom   34 type  2   force =     0.00000000    0.00000000    0.00000000
     atom   35 type  1   force =    -0.00032553    0.00075324    0.00008978
     atom   36 type  1   force =     0.00057915    0.00083461    0.00055695
     atom   37 type  1   force =    -0.00002332   -0.01358862    0.00234029
     atom   38 type  1   force =     0.00009584    0.00454633   -0.00838621
     atom   39 type  1   force =    -0.01697440   -0.00378462    0.00385589
     atom   40 type  1   force =     0.00002161   -0.00009459    0.01032167
     atom   41 type  3   force =     0.00000000    0.00000000    0.00000000
     atom   42 type  3   force =     0.00000000    0.00000000    0.00000000
     atom   43 type  3   force =     0.00000000    0.00000000    0.00000000
     atom   44 type  3   force =     0.00000000    0.00000000    0.00000000
     atom   45 type  3   force =     0.00000000    0.00000000    0.00000000
     atom   46 type  3   force =     0.00000000    0.00000000    0.00000000
     The Hubbard contrib.    to forces
     atom    1 type  1   force =     0.00000000    0.00000000    0.00000000
     atom    2 type  1   force =     0.00000000    0.00000000    0.00000000
     atom    3 type  1   force =     0.00000000    0.00000000    0.00000000
     atom    4 type  1   force =     0.00000000    0.00000000    0.00000000
     atom    5 type  2   force =     0.00000000    0.00000000    0.00000000
     atom    6 type  2   force =     0.00000000    0.00000000    0.00000000
     atom    7 type  1   force =     0.00000000    0.00000000    0.00000000
     atom    8 type  1   force =     0.00000000    0.00000000    0.00000000
     atom    9 type  2   force =     0.00000000    0.00000000    0.00000000
     atom   10 type  2   force =     0.00000000    0.00000000    0.00000000
     atom   11 type  1   force =     0.00000000    0.00000000    0.00000000
     atom   12 type  1   force =     0.00000000    0.00000000    0.00000000
     atom   13 type  1   force =     0.00000000    0.00000000    0.00000000
     atom   14 type  1   force =     0.00000000    0.00000000    0.00000000
     atom   15 type  1   force =     0.00000000    0.00000000    0.00000000
     atom   16 type  1   force =     0.00000000    0.00000000    0.00000000
     atom   17 type  2   force =     0.00000000    0.00000000    0.00000000
     atom   18 type  2   force =     0.00000000    0.00000000    0.00000000
     atom   19 type  1   force =     0.00000000    0.00000000    0.00000000
     atom   20 type  1   force =     0.00000000    0.00000000    0.00000000
     atom   21 type  2   force =     0.00000000    0.00000000    0.00000000
     atom   22 type  2   force =     0.00000000    0.00000000    0.00000000
     atom   23 type  1   force =     0.00000000    0.00000000    0.00000000
     atom   24 type  1   force =     0.00000000    0.00000000    0.00000000
     atom   25 type  1   force =     0.00000000    0.00000000    0.00000000
     atom   26 type  1   force =     0.00000000    0.00000000    0.00000000
     atom   27 type  1   force =     0.00000000    0.00000000    0.00000000
     atom   28 type  1   force =     0.00000000    0.00000000    0.00000000
     atom   29 type  2   force =     0.00000000    0.00000000    0.00000000
     atom   30 type  2   force =     0.00000000    0.00000000    0.00000000
     atom   31 type  1   force =     0.00000000    0.00000000    0.00000000
     atom   32 type  1   force =     0.00000000    0.00000000    0.00000000
     atom   33 type  2   force =     0.00000000    0.00000000    0.00000000
     atom   34 type  2   force =     0.00000000    0.00000000    0.00000000
     atom   35 type  1   force =     0.00000000    0.00000000    0.00000000
     atom   36 type  1   force =     0.00000000    0.00000000    0.00000000
     atom   37 type  1   force =     0.00000000    0.00000000    0.00000000
     atom   38 type  1   force =     0.00000000    0.00000000    0.00000000
     atom   39 type  1   force =     0.00000000    0.00000000    0.00000000
     atom   40 type  1   force =     0.00000000    0.00000000    0.00000000
     atom   41 type  3   force =     0.00000000    0.00000000    0.00000000
     atom   42 type  3   force =     0.00000000    0.00000000    0.00000000
     atom   43 type  3   force =     0.00000000    0.00000000    0.00000000
     atom   44 type  3   force =     0.00000000    0.00000000    0.00000000
     atom   45 type  3   force =     0.00000000    0.00000000    0.00000000
     atom   46 type  3   force =     0.00000000    0.00000000    0.00000000
     The SCF correction term to forces
     atom    1 type  1   force =     0.00000008    0.00000109   -0.00000139
     atom    2 type  1   force =     0.00000008   -0.00000038   -0.00000178
     atom    3 type  1   force =    -0.00000095   -0.00000089   -0.00000153
     atom    4 type  1   force =     0.00000089    0.00000142   -0.00000215
     atom    5 type  2   force =     0.00000120   -0.00000014   -0.00000296
     atom    6 type  2   force =    -0.00000106    0.00000005   -0.00000226
     atom    7 type  1   force =     0.00000056    0.00000117   -0.00000110
     atom    8 type  1   force =    -0.00000060   -0.00000005   -0.00000099
     atom    9 type  2   force =    -0.00000047    0.00000152   -0.00000305
     atom   10 type  2   force =     0.00000055   -0.00000010   -0.00000415
     atom   11 type  1   force =    -0.00000010   -0.00000133   -0.00000141
     atom   12 type  1   force =    -0.00000003   -0.00000013   -0.00000125
     atom   13 type  1   force =    -0.00000131   -0.00000017   -0.00000127
     atom   14 type  1   force =     0.00000121    0.00000000   -0.00000055
     atom   15 type  1   force =    -0.00000004    0.00000007   -0.00000065
     atom   16 type  1   force =     0.00000009   -0.00000000   -0.00000076
     atom   17 type  2   force =    -0.00000112   -0.00000031   -0.00000005
     atom   18 type  2   force =     0.00000101    0.00000005   -0.00000005
     atom   19 type  1   force =     0.00000098    0.00000094   -0.00000002
     atom   20 type  1   force =    -0.00000090    0.00000042   -0.00000002
     atom   21 type  2   force =     0.00000039   -0.00000032   -0.00000004
     atom   22 type  2   force =    -0.00000028   -0.00000054   -0.00000005
     atom   23 type  1   force =     0.00000085   -0.00000076   -0.00000002
     atom   24 type  1   force =    -0.00000079   -0.00000018   -0.00000002
     atom   25 type  1   force =    -0.00000004    0.00000007    0.00000062
     atom   26 type  1   force =     0.00000009   -0.00000000    0.00000073
     atom   27 type  1   force =    -0.00000131   -0.00000017    0.00000124
     atom   28 type  1   force =     0.00000120    0.00000000    0.00000052
     atom   29 type  2   force =     0.00000120   -0.00000014    0.00000293
     atom   30 type  2   force =    -0.00000106    0.00000005    0.00000223
     atom   31 type  1   force =     0.00000056    0.00000118    0.00000108
     atom   32 type  1   force =    -0.00000060   -0.00000005    0.00000098
     atom   33 type  2   force =    -0.00000047    0.00000152    0.00000302
     atom   34 type  2   force =     0.00000054   -0.00000010    0.00000413
     atom   35 type  1   force =    -0.00000010   -0.00000134    0.00000140
     atom   36 type  1   force =    -0.00000003   -0.00000014    0.00000125
     atom   37 type  1   force =    -0.00000095   -0.00000089    0.00000154
     atom   38 type  1   force =     0.00000089    0.00000142    0.00000215
     atom   39 type  1   force =     0.00000009    0.00000109    0.00000139
     atom   40 type  1   force =     0.00000008   -0.00000038    0.00000179
     atom   41 type  3   force =     0.00000008    0.00000008   -0.00000022
     atom   42 type  3   force =     0.00000008    0.00000008    0.00000022
     atom   43 type  3   force =    -0.00000007    0.00000004   -0.00000030
     atom   44 type  3   force =    -0.00000007    0.00000004    0.00000030
     atom   45 type  3   force =     0.00000005    0.00000004   -0.00000023
     atom   46 type  3   force =     0.00000005    0.00000005    0.00000025

     Total force =     0.001113     Total SCF correction =     0.000013
     Energy error            =      2.9E-06 Ry
     Gradient error          =      2.5E-04 Ry/Bohr

     number of scf cycles    =  40
     number of bfgs steps    =  39

     energy             old  =   -3435.3312938905 Ry
     energy             new  =   -3435.3312968148 Ry

     CASE: energy            _new < energy            _old

     new trust radius        =       0.0056584816 bohr
     new conv_thr            =            1.0E-11 Ry


ATOMIC_POSITIONS (crystal)
O             0.0054504315        0.4434935046        0.2697794772
O             0.4843424821        0.4916085813        0.2715654282
O            -0.0006898412        0.0117331904        0.3001376985
O             0.4982301605       -0.0023169631        0.3032315501
Ru            0.2488167224       -0.0048056499        0.3585011134
Ru            0.7487673399       -0.0047942445        0.3581173852
O             0.2493456726        0.3021160456        0.3613384260
O             0.7492179810        0.3031031723        0.3588226783
Ru           -0.0007352696        0.4944875519        0.3580091749
Ru            0.4998487166        0.4938506132        0.3495753963
O             0.2414773115        0.6898257812        0.3550854583
O             0.7558798435        0.6874828226        0.3542040331
O            -0.0022654234       -0.0037621502        0.4109554544
O             0.4996448428       -0.0092027437        0.4119647513
O             0.0006553287        0.5027366085        0.4463908345
O             0.4999984334        0.5044425811        0.4407602796
Ru           -0.0012043134        0.0014594584        0.5000010000
Ru            0.4992751241        0.0022174984        0.5000010000
O             0.2495035796        0.1918909602        0.5000010000
O             0.7477168510        0.1920838866        0.5000010000
Ru            0.2566436585        0.5028476719        0.5000010000
Ru            0.7445731190        0.5025803706        0.5000010000
O             0.2486510888        0.8130136550        0.5000010000
O             0.7488605748        0.8122984158        0.5000010000
O             0.0006553287        0.5027366085        0.5536101655
O             0.4999984334        0.5044425811        0.5592407204
O            -0.0022654234       -0.0037621502        0.5890455456
O             0.4996448428       -0.0092027437        0.5880362487
Ru            0.2488167224       -0.0048056499        0.6414998866
Ru            0.7487673399       -0.0047942445        0.6418836148
O             0.2493456726        0.3021160456        0.6386625740
O             0.7492179810        0.3031031723        0.6411783217
Ru           -0.0007352696        0.4944875519        0.6419918251
Ru            0.4998487166        0.4938506132        0.6504256037
O             0.2414773115        0.6898257812        0.6449155417
O             0.7558798435        0.6874828226        0.6457969669
O            -0.0006898412        0.0117331904        0.6998643015
O             0.4982301605       -0.0023169631        0.6967704499
O             0.0054504315        0.4434935046        0.7302215228
O             0.4843424821        0.4916085813        0.7284355718
H             0.1454652252        0.4751096364        0.2541498513
H             0.1454652252        0.4751096364        0.7458501487
H            -0.0005644297        0.1525719134        0.2783420883
H            -0.0005644297        0.1525719134        0.7216579117
H             0.4977396309        0.9631247906        0.2601958579
H             0.4977396309        0.9631247906        0.7398041421



     Writing config-only to output data dir /storage/home/mgm6007/ixd4/Maria/Strain0_Files/RuO2-110-0-025/RuO2-110-0-025.save/
     NEW-OLD atomic charge density approx. for the potential

     Check: negative core charge=   -0.000001

     negative rho (up, down):  1.477E-04 0.000E+00

     add environment contribution to local potential
     Polarization accuracy = 3.7E-12, # of iterations =  47

     total cpu time spent up to now is   205748.0 secs

     per-process dynamical memory:   224.1 Mb

     Self-consistent Calculation

     iteration #  1     ecut=    50.00 Ry     beta= 0.70
     Davidson diagonalization with overlap
     ethr =  1.00E-06,  avg # of iterations =  2.0

     Threshold (ethr) on eigenvalues was too large:
     Diagonalizing with lowered threshold

     Davidson diagonalization with overlap
     ethr =  9.82E-10,  avg # of iterations =  4.0

     negative rho (up, down):  1.439E-04 0.000E+00

     add environment contribution to local potential
     Polarization accuracy = 6.4E-12, # of iterations =  46

     total cpu time spent up to now is   206066.4 secs

     total energy              =   -3435.33129874 Ry
     estimated scf accuracy    <       0.00000317 Ry
     electrostatic embedding   =      -0.05871162 Ry
     cavitation energy         =       0.02159982 Ry
     PV energy                 =      -0.08204835 Ry
     correction to one-el term =     185.79483068 Ry

     iteration #  2     ecut=    50.00 Ry     beta= 0.70
     Davidson diagonalization with overlap
     ethr =  8.65E-10,  avg # of iterations =  2.0

     negative rho (up, down):  1.432E-04 0.000E+00

     add environment contribution to local potential
     Polarization accuracy = 3.7E-12, # of iterations =  47

     total cpu time spent up to now is   206362.1 secs

     total energy              =   -3435.33129985 Ry
     estimated scf accuracy    <       0.00000332 Ry
     electrostatic embedding   =      -0.05873156 Ry
     cavitation energy         =       0.02159783 Ry
     PV energy                 =      -0.08204707 Ry
     correction to one-el term =     185.79309860 Ry

     iteration #  3     ecut=    50.00 Ry     beta= 0.70
     Davidson diagonalization with overlap
     ethr =  8.65E-10,  avg # of iterations =  2.0

     negative rho (up, down):  1.415E-04 0.000E+00

     add environment contribution to local potential
     Polarization accuracy = 3.7E-12, # of iterations =  47

     total cpu time spent up to now is   206643.9 secs

     total energy              =   -3435.33130011 Ry
     estimated scf accuracy    <       0.00000109 Ry
     electrostatic embedding   =      -0.05873730 Ry
     cavitation energy         =       0.02159742 Ry
     PV energy                 =      -0.08204672 Ry
     correction to one-el term =     185.79300610 Ry

     iteration #  4     ecut=    50.00 Ry     beta= 0.70
     Davidson diagonalization with overlap
     ethr =  2.97E-10,  avg # of iterations =  2.0

     negative rho (up, down):  1.417E-04 0.000E+00

     add environment contribution to local potential
     Polarization accuracy = 3.7E-12, # of iterations =  47

     total cpu time spent up to now is   206976.1 secs

     total energy              =   -3435.33129997 Ry
     estimated scf accuracy    <       0.00000018 Ry
     electrostatic embedding   =      -0.05875274 Ry
     cavitation energy         =       0.02159630 Ry
     PV energy                 =      -0.08204594 Ry
     correction to one-el term =     185.79239741 Ry

     iteration #  5     ecut=    50.00 Ry     beta= 0.70
     Davidson diagonalization with overlap
     ethr =  4.91E-11,  avg # of iterations =  2.0

     negative rho (up, down):  1.425E-04 0.000E+00

     add environment contribution to local potential
     Polarization accuracy = 3.6E-12, # of iterations =  47

     total cpu time spent up to now is   207291.8 secs

     total energy              =   -3435.33129982 Ry
     estimated scf accuracy    <       0.00000011 Ry
     electrostatic embedding   =      -0.05875627 Ry
     cavitation energy         =       0.02159616 Ry
     PV energy                 =      -0.08204584 Ry
     correction to one-el term =     185.79246466 Ry

     iteration #  6     ecut=    50.00 Ry     beta= 0.70
     Davidson diagonalization with overlap
     ethr =  2.90E-11,  avg # of iterations =  3.0

     negative rho (up, down):  1.433E-04 0.000E+00

     add environment contribution to local potential
     Polarization accuracy = 3.6E-12, # of iterations =  47
