
     Program PWSCF v.7.2 starts on 19Jul2023 at 20:28:47 
        Git branch: heads/qe-7.2
        Last git commit: b4c5e8deeb7d1863e7553a87b45f8d22c21926a5
        Last git commit date: Mon Mar 27 16:12:09 2023 +0000
        Last git commit subject: Merge branch 'merge_fix_hubbard' into 'develop'

     This program is part of the open-source Quantum ESPRESSO suite
     for quantum simulation of materials; please cite
         "P. Giannozzi et al., J. Phys.:Condens. Matter 21 395502 (2009);
         "P. Giannozzi et al., J. Phys.:Condens. Matter 29 465901 (2017);
         "P. Giannozzi et al., J. Chem. Phys. 152 154105 (2020);
          URL http://www.quantum-espresso.org", 
     in publications or presentations arising from this work. More details at
     http://www.quantum-espresso.org/quote

     Parallel version (MPI), running on    20 processors

     MPI processes distributed on     1 nodes
     102621 MiB available memory on the printing compute node when the environment starts
 
     Reading input from RuO2-110-0-035.in

     Current dimensions of program PWSCF are:
     Max number of different atomic species (ntypx) = 10
     Max number of k-points (npk) =  40000
     Max angular momentum in pseudopotentials (lmaxx) =  4
 
     Reading input from environ.in:
     * Environ restarting
     * setting up water environment
     * using electronic solvent mode
     * setting boundary derivatives method to SCCS default
     
     file O.pbe-n-kjpaw_psl.0.1.UPF: wavefunction(s)  2P renormalized
     Message from routine setup:
     using ibrav=0 with symmetry is DISCOURAGED, use correct ibrav instead
 
     R & G space division:  proc/nbgrp/npool/nimage =      20
     Subspace diagonalization in iterative solution of the eigenvalue problem:
     one sub-group per band group will be used
     scalapack distributed-memory algorithm (size of sub-group:  2*  2 procs)

 
     Parallelization info
     --------------------
     sticks:   dense  smooth     PW     G-vecs:    dense   smooth      PW
     Min         282     113     29                56190    14217    1913
     Max         283     114     30                56201    14227    1932
     Sum        5657    2263    593              1123933   284439   38425
 
     Using Slab Decomposition
 


     bravais-lattice index     =            0
     lattice parameter (alat)  =      12.1041  a.u.
     unit-cell volume          =    5954.5483 (a.u.)^3
     number of atoms/cell      =           46
     number of atomic types    =            3
     number of electrons       =       366.00
     number of Kohn-Sham states=          220
     kinetic-energy cutoff     =      50.0000  Ry
     charge density cutoff     =     500.0000  Ry
     scf convergence threshold =      1.0E-09
     mixing beta               =       0.7000
     number of iterations used =            8  local-TF  mixing
     energy convergence thresh.=      1.0E-04
     force convergence thresh. =      1.0E-04
     Exchange-correlation= PBE
                           (   1   4   3   4   0   0   0)
     nstep                     =          200


     ================================================================================
 
                                  Environ Setup Summary

     ================================================================================
 
     Please cite

          O. Andreussi, I. Dabo and N. Marzari, J. Chem. Phys. 136, 064102 (2012)

     in publications or presentations arising from this work.

     ================================================================================
 
     Parameters
     ==========

     compensation onset threshold      =               0.1000E+00
     static permittivity               =                    78.30
     surface tension in input (dyn/cm) =                    47.90
     surface tension in internal units =               0.6153E-04
     external pressure in input (GPa)  =                    -0.36
     external pressure in inter. units =              -0.2447E-04

     Solvent Boundary
     ================

     solvent mode                      =               electronic
     derivatives method                =                    chain
     numerical core for derivatives    =                      fft
     switching function adopted        =                     SCCS
     density limit for vacuum region   =               0.5000E-02
     density limit for bulk solvent    =               0.1000E-03

     Electrostatic Setup
     ===================

     electrostatic problem to solve    =              generalized
     numerical solver adopted          =                       cg
     type of auxiliary density adopted =                     none
     numerical core for poisson        =                      fft
     type of pbc corrections           =                parabolic
     numerical core for corrections    =                      1da

     ================================================================================
 

     celldm(1)=  12.104053  celldm(2)=   0.000000  celldm(3)=   0.000000
     celldm(4)=   0.000000  celldm(5)=   0.000000  celldm(6)=   0.000000

     crystal axes: (cart. coord. in units of alat)
               a(1) = (   1.000000   0.000000   0.000000 )  
               a(2) = (   0.000000   0.971735   0.000000 )  
               a(3) = (   0.000000   0.000000   3.455479 )  

     reciprocal axes: (cart. coord. in units 2 pi/alat)
               b(1) = (  1.000000  0.000000  0.000000 )  
               b(2) = (  0.000000  1.029087  0.000000 )  
               b(3) = (  0.000000  0.000000  0.289395 )  


     PseudoPot. # 1 for O  read from file:
     /gpfs/group/ixd4/default/Simon/pseudopotentials/materialscloud/SSSP_1.3.0_PBE_efficiency/O.pbe-n-kjpaw_psl.0.1.UPF
     MD5 check sum: 0234752ac141de4415c5fc33072bef88
     Pseudo is Projector augmented-wave + core cor, Zval =  6.0
     Generated using "atomic" code by A. Dal Corso  v.5.0.99 svn rev. 10869
     Shape of augmentation charge: BESSEL
     Using radial grid of 1095 points,  4 beta functions with: 
                l(1) =   0
                l(2) =   0
                l(3) =   1
                l(4) =   1
     Q(r) pseudized with 0 coefficients 


     PseudoPot. # 2 for Ru read from file:
     /gpfs/group/ixd4/default/Simon/pseudopotentials/materialscloud/SSSP_1.3.0_PBE_efficiency/Ru_ONCV_PBE-1.0.oncvpsp.upf
     MD5 check sum: be037bb81c227cfb9b1461a9f099f4bd
     Pseudo is Norm-conserving, Zval = 16.0
     Generated using ONCVPSP code by D. R. Hamann
     Using radial grid of 1458 points,  6 beta functions with: 
                l(1) =   0
                l(2) =   0
                l(3) =   1
                l(4) =   1
                l(5) =   2
                l(6) =   2

     PseudoPot. # 3 for H  read from file:
     /gpfs/group/ixd4/default/Simon/pseudopotentials/materialscloud/SSSP_1.3.0_PBE_efficiency/H.pbe-rrkjus_psl.1.0.0.UPF
     MD5 check sum: f52b6d4d1c606e5624b1dc7b2218f220
     Pseudo is Ultrasoft, Zval =  1.0
     Generated using "atomic" code by A. Dal Corso  v.5.1
     Using radial grid of  929 points,  2 beta functions with: 
                l(1) =   0
                l(2) =   0
     Q(r) pseudized with 0 coefficients 


     atomic species   valence    mass     pseudopotential
        O              6.00    15.99940     O ( 1.00)
        Ru            16.00   101.07000     Ru( 1.00)
        H              1.00     1.00794     H ( 1.00)

      4 Sym. Ops. (no inversion) found



   Cartesian axes

     site n.     atom                  positions (alat units)
         1           O   tau(   1) = (   0.0178249   0.4858677   0.9344291  )
         2           O   tau(   2) = (   0.4710547   0.4858677   0.9465082  )
         3           O   tau(   3) = (  -0.0015694   0.0000000   1.0645346  )
         4           O   tau(   4) = (   0.4965735   0.0000000   0.9977354  )
         5           Ru  tau(   5) = (   0.2387225   0.0000000   1.2376651  )
         6           Ru  tau(   6) = (   0.7548744   0.0000000   1.2340713  )
         7           O   tau(   7) = (   0.2466953   0.2945421   1.2412356  )
         8           O   tau(   8) = (   0.7517147   0.2993095   1.2298278  )
         9           Ru  tau(   9) = (   0.0025688   0.4858677   1.2363368  )
        10           Ru  tau(  10) = (   0.5038405   0.4858677   1.2189901  )
        11           O   tau(  11) = (   0.2466953   0.6771933   1.2412356  )
        12           O   tau(  12) = (   0.7517147   0.6724259   1.2298278  )
        13           O   tau(  13) = (  -0.0044770   0.0000000   1.4254937  )
        14           O   tau(  14) = (   0.5009947   0.0000000   1.4222124  )
        15           O   tau(  15) = (  -0.0026601   0.4858677   1.5409872  )
        16           O   tau(  16) = (   0.4932853   0.4858677   1.5250940  )
        17           Ru  tau(  17) = (  -0.0064267   0.0000000   1.7277432  )
        18           Ru  tau(  18) = (   0.4995895   0.0000000   1.7277432  )
        19           O   tau(  19) = (   0.2499376   0.1851010   1.7277432  )
        20           O   tau(  20) = (   0.7437630   0.1922321   1.7277432  )
        21           Ru  tau(  21) = (   0.2522950   0.4858677   1.7277432  )
        22           Ru  tau(  22) = (   0.7435734   0.4858677   1.7277432  )
        23           O   tau(  23) = (   0.2499376   0.7866353   1.7277432  )
        24           O   tau(  24) = (   0.7437630   0.7795042   1.7277432  )
        25           O   tau(  25) = (  -0.0026601   0.4858677   1.9144958  )
        26           O   tau(  26) = (   0.4932853   0.4858677   1.9303889  )
        27           O   tau(  27) = (  -0.0044770   0.0000000   2.0299893  )
        28           O   tau(  28) = (   0.5009947   0.0000000   2.0332706  )
        29           Ru  tau(  29) = (   0.2387225   0.0000000   2.2178178  )
        30           Ru  tau(  30) = (   0.7548744   0.0000000   2.2214116  )
        31           O   tau(  31) = (   0.2466953   0.2945421   2.2142473  )
        32           O   tau(  32) = (   0.7517147   0.2993095   2.2256552  )
        33           Ru  tau(  33) = (   0.0025688   0.4858677   2.2191461  )
        34           Ru  tau(  34) = (   0.5038405   0.4858677   2.2364929  )
        35           O   tau(  35) = (   0.2466953   0.6771933   2.2142473  )
        36           O   tau(  36) = (   0.7517147   0.6724259   2.2256552  )
        37           O   tau(  37) = (  -0.0015694   0.0000000   2.3909518  )
        38           O   tau(  38) = (   0.4965735   0.0000000   2.4577510  )
        39           O   tau(  39) = (   0.0178249   0.4858677   2.5210539  )
        40           O   tau(  40) = (   0.4710547   0.4858677   2.5089747  )
        41           H   tau(  41) = (   0.1684170   0.4858677   0.8979320  )
        42           H   tau(  42) = (   0.1684170   0.4858677   2.5575475  )
        43           H   tau(  43) = (   0.4965745   0.1155802   0.9041748  )
        44           H   tau(  44) = (   0.4965745   0.1155802   2.5513047  )
        45           H   tau(  45) = (   0.4965745   0.8561552   0.9041748  )
        46           H   tau(  46) = (   0.4965745   0.8561552   2.5513047  )

     number of k points=     1  Marzari-Vanderbilt smearing, width (Ry)=  0.0300
                       cart. coord. in units 2pi/alat
        k(    1) = (   0.2500000   0.2572717   0.0000000), wk =   2.0000000

     Dense  grid:  1123933 G-vectors     FFT dimensions: (  90,  90, 300)

     Smooth grid:   284439 G-vectors     FFT dimensions: (  60,  54, 192)

     Estimated max dynamical RAM per process >     172.92 MB

     Estimated total dynamical RAM >       3.38 GB

     Check: negative core charge=   -0.000001

     Initial potential from superposition of free atoms

     starting charge     365.9933, renormalised to     366.0000

     add environment contribution to local potential
     Polarization accuracy = 3.3E-12, # of iterations =  24

     negative rho (up, down):  3.080E-05 0.000E+00
     Starting wfcs are  238 randomized atomic wfcs
     Checking if some PAW data can be deallocated... 

     total cpu time spent up to now is     1067.1 secs

     per-process dynamical memory:   145.2 Mb

     Self-consistent Calculation

     iteration #  1     ecut=    50.00 Ry     beta= 0.70
     Davidson diagonalization with overlap
     ethr =  1.00E-02,  avg # of iterations =  2.0

     negative rho (up, down):  1.715E-08 0.000E+00

     total cpu time spent up to now is     1350.0 secs

     total energy              =   -3432.82255170 Ry
     estimated scf accuracy    <       9.83196371 Ry
     electrostatic embedding   =      -0.00177284 Ry
     cavitation energy         =       0.01999743 Ry
     PV energy                 =      -0.08583905 Ry
     correction to one-el term =     215.98893972 Ry

     iteration #  2     ecut=    50.00 Ry     beta= 0.70
     Davidson diagonalization with overlap
     ethr =  2.69E-03,  avg # of iterations =  2.0

     total cpu time spent up to now is     1675.4 secs

     total energy              =   -3434.94334342 Ry
     estimated scf accuracy    <       2.44217109 Ry
     electrostatic embedding   =      -0.00275035 Ry
     cavitation energy         =       0.02011385 Ry
     PV energy                 =      -0.08636022 Ry
     correction to one-el term =     215.99161490 Ry

     iteration #  3     ecut=    50.00 Ry     beta= 0.70
     Davidson diagonalization with overlap
     ethr =  6.67E-04,  avg # of iterations =  1.0

     total cpu time spent up to now is     2023.0 secs

     total energy              =   -3435.13088906 Ry
     estimated scf accuracy    <       0.45502300 Ry
     electrostatic embedding   =      -0.00321230 Ry
     cavitation energy         =       0.02020563 Ry
     PV energy                 =      -0.08659496 Ry
     correction to one-el term =     215.99280872 Ry

     iteration #  4     ecut=    50.00 Ry     beta= 0.70
     Davidson diagonalization with overlap
     ethr =  1.24E-04,  avg # of iterations =  2.0

     total cpu time spent up to now is     2303.5 secs

     total energy              =   -3435.15769526 Ry
     estimated scf accuracy    <       0.72326108 Ry
     electrostatic embedding   =      -0.00340775 Ry
     cavitation energy         =       0.02041072 Ry
     PV energy                 =      -0.08618949 Ry
     correction to one-el term =     215.99300991 Ry

     iteration #  5     ecut=    50.00 Ry     beta= 0.70
     Davidson diagonalization with overlap
     ethr =  1.24E-04,  avg # of iterations =  1.0

     total cpu time spent up to now is     2586.6 secs

     total energy              =   -3435.14808150 Ry
     estimated scf accuracy    <       0.24436686 Ry
     electrostatic embedding   =      -0.00365674 Ry
     cavitation energy         =       0.02074811 Ry
     PV energy                 =      -0.08564830 Ry
     correction to one-el term =     215.99331015 Ry

     iteration #  6     ecut=    50.00 Ry     beta= 0.70
     Davidson diagonalization with overlap
     ethr =  6.68E-05,  avg # of iterations =  2.0

     total cpu time spent up to now is     2842.6 secs

     total energy              =   -3435.13958595 Ry
     estimated scf accuracy    <       0.16856654 Ry
     electrostatic embedding   =      -0.00380149 Ry
     cavitation energy         =       0.02118833 Ry
     PV energy                 =      -0.08462674 Ry
     correction to one-el term =     215.99323308 Ry

     iteration #  7     ecut=    50.00 Ry     beta= 0.70
     Davidson diagonalization with overlap
     ethr =  4.61E-05,  avg # of iterations = 11.0

     total cpu time spent up to now is     3182.7 secs

     total energy              =   -3435.13142504 Ry
     estimated scf accuracy    <       0.11924884 Ry
     electrostatic embedding   =      -0.00373356 Ry
     cavitation energy         =       0.02149048 Ry
     PV energy                 =      -0.08358511 Ry
     correction to one-el term =     215.99267952 Ry

     iteration #  8     ecut=    50.00 Ry     beta= 0.70
     Davidson diagonalization with overlap
     ethr =  3.26E-05,  avg # of iterations = 10.0

     add environment contribution to local potential
     Polarization accuracy = 4.0E-12, # of iterations =  44

     total cpu time spent up to now is     3498.2 secs

     total energy              =   -3435.12988932 Ry
     estimated scf accuracy    <       0.03459020 Ry
     electrostatic embedding   =      -0.00350919 Ry
     cavitation energy         =       0.02184455 Ry
     PV energy                 =      -0.08241191 Ry
     correction to one-el term =     215.99165231 Ry

     iteration #  9     ecut=    50.00 Ry     beta= 0.70
     Davidson diagonalization with overlap
     ethr =  9.45E-06,  avg # of iterations =  9.0

     total cpu time spent up to now is     3838.2 secs

     total energy              =   -3435.21391979 Ry
     estimated scf accuracy    <       0.13416450 Ry
     electrostatic embedding   =      -0.08065659 Ry
     cavitation energy         =       0.02187533 Ry
     PV energy                 =      -0.08211160 Ry
     correction to one-el term =     177.62929701 Ry

     iteration # 10     ecut=    50.00 Ry     beta= 0.70
     Davidson diagonalization with overlap
     ethr =  9.45E-06,  avg # of iterations =  1.0

     add environment contribution to local potential
     Polarization accuracy = 2.9E-12, # of iterations =  46

     total cpu time spent up to now is     4061.1 secs

     total energy              =   -3435.20544345 Ry
     estimated scf accuracy    <       0.09931968 Ry
     electrostatic embedding   =      -0.08109720 Ry
     cavitation energy         =       0.02187373 Ry
     PV energy                 =      -0.08209040 Ry
     correction to one-el term =     177.63065993 Ry

     iteration # 11     ecut=    50.00 Ry     beta= 0.70
     Davidson diagonalization with overlap
     ethr =  9.45E-06,  avg # of iterations =  1.0

     add environment contribution to local potential
     Polarization accuracy = 3.6E-12, # of iterations =  47

     total cpu time spent up to now is     4369.8 secs

     total energy              =   -3435.20369251 Ry
     estimated scf accuracy    <       0.05314463 Ry
     electrostatic embedding   =      -0.08873088 Ry
     cavitation energy         =       0.02185984 Ry
     PV energy                 =      -0.08197542 Ry
     correction to one-el term =     177.40531294 Ry

     iteration # 12     ecut=    50.00 Ry     beta= 0.70
     Davidson diagonalization with overlap
     ethr =  9.45E-06,  avg # of iterations =  2.0

     negative rho (up, down):  1.975E-04 0.000E+00

     add environment contribution to local potential
     Polarization accuracy = 2.7E-12, # of iterations =  47

     total cpu time spent up to now is     4653.5 secs

     total energy              =   -3435.20757053 Ry
     estimated scf accuracy    <       0.00959570 Ry
     electrostatic embedding   =      -0.10227617 Ry
     cavitation energy         =       0.02182697 Ry
     PV energy                 =      -0.08180665 Ry
     correction to one-el term =     177.34204776 Ry

     iteration # 13     ecut=    50.00 Ry     beta= 0.70
     Davidson diagonalization with overlap
     ethr =  2.62E-06,  avg # of iterations =  5.0

     negative rho (up, down):  1.413E-03 0.000E+00

     add environment contribution to local potential
     Polarization accuracy = 3.6E-12, # of iterations =  47

     total cpu time spent up to now is     4953.7 secs

     total energy              =   -3435.21117434 Ry
     estimated scf accuracy    <       0.00627041 Ry
     electrostatic embedding   =      -0.11635894 Ry
     cavitation energy         =       0.02174881 Ry
     PV energy                 =      -0.08175248 Ry
     correction to one-el term =     177.63859086 Ry

     iteration # 14     ecut=    50.00 Ry     beta= 0.70
     Davidson diagonalization with overlap
     ethr =  1.71E-06,  avg # of iterations =  5.0

     negative rho (up, down):  4.130E-04 0.000E+00

     add environment contribution to local potential
     Polarization accuracy = 8.7E-12, # of iterations =  46

     total cpu time spent up to now is     5257.4 secs

     total energy              =   -3435.21177171 Ry
     estimated scf accuracy    <       0.00809302 Ry
     electrostatic embedding   =      -0.12682915 Ry
     cavitation energy         =       0.02166785 Ry
     PV energy                 =      -0.08177429 Ry
     correction to one-el term =     178.07885146 Ry

     iteration # 15     ecut=    50.00 Ry     beta= 0.70
     Davidson diagonalization with overlap
     ethr =  1.71E-06,  avg # of iterations =  6.0

     negative rho (up, down):  1.570E-05 0.000E+00

     add environment contribution to local potential
     Polarization accuracy = 5.3E-12, # of iterations =  46

     total cpu time spent up to now is     5457.3 secs

     total energy              =   -3435.21193646 Ry
     estimated scf accuracy    <       0.00468201 Ry
     electrostatic embedding   =      -0.12849814 Ry
     cavitation energy         =       0.02160365 Ry
     PV energy                 =      -0.08188844 Ry
     correction to one-el term =     178.66515132 Ry

     iteration # 16     ecut=    50.00 Ry     beta= 0.70
     Davidson diagonalization with overlap
     ethr =  1.28E-06,  avg # of iterations =  5.0

     add environment contribution to local potential
     Polarization accuracy = 3.0E-12, # of iterations =  46

     total cpu time spent up to now is     5752.8 secs

     total energy              =   -3435.21202214 Ry
     estimated scf accuracy    <       0.00313969 Ry
     electrostatic embedding   =      -0.12795065 Ry
     cavitation energy         =       0.02156012 Ry
     PV energy                 =      -0.08197771 Ry
     correction to one-el term =     179.17430500 Ry

     iteration # 17     ecut=    50.00 Ry     beta= 0.70
     Davidson diagonalization with overlap
     ethr =  8.58E-07,  avg # of iterations =  6.0

     negative rho (up, down):  2.436E-08 0.000E+00

     add environment contribution to local potential
     Polarization accuracy = 7.5E-12, # of iterations =  44

     total cpu time spent up to now is     6094.6 secs

     total energy              =   -3435.21212947 Ry
     estimated scf accuracy    <       0.00144613 Ry
     electrostatic embedding   =      -0.12599446 Ry
     cavitation energy         =       0.02152097 Ry
     PV energy                 =      -0.08208196 Ry
     correction to one-el term =     179.90629467 Ry

     iteration # 18     ecut=    50.00 Ry     beta= 0.70
     Davidson diagonalization with overlap
     ethr =  3.95E-07,  avg # of iterations =  7.0

     negative rho (up, down):  2.848E-04 0.000E+00

     add environment contribution to local potential
     Polarization accuracy = 6.7E-12, # of iterations =  44

     total cpu time spent up to now is     6412.5 secs

     total energy              =   -3435.21237400 Ry
     estimated scf accuracy    <       0.00022815 Ry
     electrostatic embedding   =      -0.12227595 Ry
     cavitation energy         =       0.02148549 Ry
     PV energy                 =      -0.08218011 Ry
     correction to one-el term =     180.50592020 Ry

     iteration # 19     ecut=    50.00 Ry     beta= 0.70
     Davidson diagonalization with overlap
     ethr =  6.23E-08,  avg # of iterations = 12.0

     negative rho (up, down):  6.868E-04 0.000E+00

     add environment contribution to local potential
     Polarization accuracy = 7.3E-12, # of iterations =  45

     total cpu time spent up to now is     6711.9 secs

     total energy              =   -3435.21248199 Ry
     estimated scf accuracy    <       0.00019754 Ry
     electrostatic embedding   =      -0.11951030 Ry
     cavitation energy         =       0.02147986 Ry
     PV energy                 =      -0.08219236 Ry
     correction to one-el term =     180.90985425 Ry

     iteration # 20     ecut=    50.00 Ry     beta= 0.70
     Davidson diagonalization with overlap
     ethr =  5.40E-08,  avg # of iterations =  2.0

     negative rho (up, down):  6.824E-04 0.000E+00

     add environment contribution to local potential
     Polarization accuracy = 1.9E-12, # of iterations =  46

     total cpu time spent up to now is     7010.7 secs

     total energy              =   -3435.21251156 Ry
     estimated scf accuracy    <       0.00007522 Ry
     electrostatic embedding   =      -0.11864406 Ry
     cavitation energy         =       0.02147776 Ry
     PV energy                 =      -0.08218900 Ry
     correction to one-el term =     181.03705773 Ry

     iteration # 21     ecut=    50.00 Ry     beta= 0.70
     Davidson diagonalization with overlap
     ethr =  2.06E-08,  avg # of iterations = 14.0

     negative rho (up, down):  5.494E-04 0.000E+00

     add environment contribution to local potential
     Polarization accuracy = 9.5E-12, # of iterations =  45

     total cpu time spent up to now is     7292.4 secs

     total energy              =   -3435.21256288 Ry
     estimated scf accuracy    <       0.00004431 Ry
     electrostatic embedding   =      -0.11637756 Ry
     cavitation energy         =       0.02147924 Ry
     PV energy                 =      -0.08216412 Ry
     correction to one-el term =     181.28067404 Ry

     iteration # 22     ecut=    50.00 Ry     beta= 0.70
     Davidson diagonalization with overlap
     ethr =  1.21E-08,  avg # of iterations =  3.0

     negative rho (up, down):  1.117E-04 0.000E+00

     add environment contribution to local potential
     Polarization accuracy = 2.4E-12, # of iterations =  46

     total cpu time spent up to now is     7576.2 secs

     total energy              =   -3435.21257966 Ry
     estimated scf accuracy    <       0.00001439 Ry
     electrostatic embedding   =      -0.11522598 Ry
     cavitation energy         =       0.02148036 Ry
     PV energy                 =      -0.08214697 Ry
     correction to one-el term =     181.38769855 Ry

     iteration # 23     ecut=    50.00 Ry     beta= 0.70
     Davidson diagonalization with overlap
     ethr =  3.93E-09,  avg # of iterations =  3.0

     negative rho (up, down):  1.012E-04 0.000E+00

     add environment contribution to local potential
     Polarization accuracy = 4.7E-12, # of iterations =  45

     total cpu time spent up to now is     7869.0 secs

     total energy              =   -3435.21258340 Ry
     estimated scf accuracy    <       0.00000313 Ry
     electrostatic embedding   =      -0.11480103 Ry
     cavitation energy         =       0.02148196 Ry
     PV energy                 =      -0.08213349 Ry
     correction to one-el term =     181.38687429 Ry

     iteration # 24     ecut=    50.00 Ry     beta= 0.70
     Davidson diagonalization with overlap
     ethr =  8.55E-10,  avg # of iterations =  2.0

     negative rho (up, down):  1.057E-04 0.000E+00

     add environment contribution to local potential
     Polarization accuracy = 2.7E-12, # of iterations =  45

     total cpu time spent up to now is     8137.6 secs

     total energy              =   -3435.21258428 Ry
     estimated scf accuracy    <       0.00000123 Ry
     electrostatic embedding   =      -0.11469391 Ry
     cavitation energy         =       0.02148121 Ry
     PV energy                 =      -0.08213457 Ry
     correction to one-el term =     181.38795955 Ry

     iteration # 25     ecut=    50.00 Ry     beta= 0.70
     Davidson diagonalization with overlap
     ethr =  3.35E-10,  avg # of iterations =  4.0

     negative rho (up, down):  1.225E-04 0.000E+00

     add environment contribution to local potential
     Polarization accuracy = 2.2E-12, # of iterations =  46

     total cpu time spent up to now is     8462.6 secs

     total energy              =   -3435.21258581 Ry
     estimated scf accuracy    <       0.00000051 Ry
     electrostatic embedding   =      -0.11451908 Ry
     cavitation energy         =       0.02148060 Ry
     PV energy                 =      -0.08213339 Ry
     correction to one-el term =     181.39793292 Ry

     iteration # 26     ecut=    50.00 Ry     beta= 0.70
     Davidson diagonalization with overlap
     ethr =  1.40E-10,  avg # of iterations =  3.0

     negative rho (up, down):  1.295E-04 0.000E+00

     add environment contribution to local potential
     Polarization accuracy = 2.2E-12, # of iterations =  46

     total cpu time spent up to now is     8767.9 secs

     total energy              =   -3435.21258685 Ry
     estimated scf accuracy    <       0.00000032 Ry
     electrostatic embedding   =      -0.11433298 Ry
     cavitation energy         =       0.02148000 Ry
     PV energy                 =      -0.08213408 Ry
     correction to one-el term =     181.40946122 Ry

     iteration # 27     ecut=    50.00 Ry     beta= 0.70
     Davidson diagonalization with overlap
     ethr =  8.86E-11,  avg # of iterations =  2.0

     negative rho (up, down):  1.375E-04 0.000E+00

     add environment contribution to local potential
     Polarization accuracy = 2.2E-12, # of iterations =  46

     total cpu time spent up to now is     9074.7 secs

     total energy              =   -3435.21258718 Ry
     estimated scf accuracy    <       0.00000017 Ry
     electrostatic embedding   =      -0.11433484 Ry
     cavitation energy         =       0.02147986 Ry
     PV energy                 =      -0.08213498 Ry
     correction to one-el term =     181.40878857 Ry

     iteration # 28     ecut=    50.00 Ry     beta= 0.70
     Davidson diagonalization with overlap
     ethr =  4.51E-11,  avg # of iterations =  2.0

     negative rho (up, down):  1.541E-04 0.000E+00

     add environment contribution to local potential
     Polarization accuracy = 2.2E-12, # of iterations =  46

     total cpu time spent up to now is     9440.4 secs

     total energy              =   -3435.21258748 Ry
     estimated scf accuracy    <       0.00000014 Ry
     electrostatic embedding   =      -0.11431929 Ry
     cavitation energy         =       0.02147980 Ry
     PV energy                 =      -0.08213561 Ry
     correction to one-el term =     181.41193096 Ry

     iteration # 29     ecut=    50.00 Ry     beta= 0.70
     Davidson diagonalization with overlap
     ethr =  3.90E-11,  avg # of iterations =  2.0

     negative rho (up, down):  1.544E-04 0.000E+00

     add environment contribution to local potential
     Polarization accuracy = 2.1E-12, # of iterations =  46

     total cpu time spent up to now is     9766.5 secs

     total energy              =   -3435.21258811 Ry
     estimated scf accuracy    <       0.00000009 Ry
     electrostatic embedding   =      -0.11427609 Ry
     cavitation energy         =       0.02147958 Ry
     PV energy                 =      -0.08213660 Ry
     correction to one-el term =     181.41737012 Ry

     iteration # 30     ecut=    50.00 Ry     beta= 0.70
     Davidson diagonalization with overlap
     ethr =  2.57E-11,  avg # of iterations =  3.0

     negative rho (up, down):  1.532E-04 0.000E+00

     add environment contribution to local potential
     Polarization accuracy = 2.6E-12, # of iterations =  45

     total cpu time spent up to now is    10099.2 secs

     total energy              =   -3435.21258869 Ry
     estimated scf accuracy    <       0.00000007 Ry
     electrostatic embedding   =      -0.11424300 Ry
     cavitation energy         =       0.02147944 Ry
     PV energy                 =      -0.08213716 Ry
     correction to one-el term =     181.42005907 Ry

     iteration # 31     ecut=    50.00 Ry     beta= 0.70
     Davidson diagonalization with overlap
     ethr =  1.89E-11,  avg # of iterations =  3.0

     negative rho (up, down):  1.448E-04 0.000E+00

     add environment contribution to local potential
     Polarization accuracy = 2.1E-12, # of iterations =  46

     total cpu time spent up to now is    10385.4 secs

     total energy              =   -3435.21258923 Ry
     estimated scf accuracy    <       0.00000006 Ry
     electrostatic embedding   =      -0.11420235 Ry
     cavitation energy         =       0.02147936 Ry
     PV energy                 =      -0.08213730 Ry
     correction to one-el term =     181.42398910 Ry

     iteration # 32     ecut=    50.00 Ry     beta= 0.70
     Davidson diagonalization with overlap
     ethr =  1.64E-11,  avg # of iterations =  2.0

     negative rho (up, down):  1.363E-04 0.000E+00

     add environment contribution to local potential
     Polarization accuracy = 2.1E-12, # of iterations =  46

     total cpu time spent up to now is    10682.3 secs

     total energy              =   -3435.21258996 Ry
     estimated scf accuracy    <       0.00000005 Ry
     electrostatic embedding   =      -0.11417425 Ry
     cavitation energy         =       0.02147934 Ry
     PV energy                 =      -0.08213714 Ry
     correction to one-el term =     181.42711977 Ry

     iteration # 33     ecut=    50.00 Ry     beta= 0.70
     Davidson diagonalization with overlap
     ethr =  1.45E-11,  avg # of iterations =  3.0

     negative rho (up, down):  1.328E-04 0.000E+00

     add environment contribution to local potential
     Polarization accuracy = 2.1E-12, # of iterations =  46

     total cpu time spent up to now is    11005.4 secs

     total energy              =   -3435.21259096 Ry
     estimated scf accuracy    <       0.00000005 Ry
     electrostatic embedding   =      -0.11414019 Ry
     cavitation energy         =       0.02147930 Ry
     PV energy                 =      -0.08213688 Ry
     correction to one-el term =     181.43031035 Ry

     iteration # 34     ecut=    50.00 Ry     beta= 0.70
     Davidson diagonalization with overlap
     ethr =  1.37E-11,  avg # of iterations =  2.0

     negative rho (up, down):  1.306E-04 0.000E+00

     add environment contribution to local potential
     Polarization accuracy = 2.1E-12, # of iterations =  46

     total cpu time spent up to now is    11300.2 secs

     total energy              =   -3435.21259167 Ry
     estimated scf accuracy    <       0.00000004 Ry
     electrostatic embedding   =      -0.11412546 Ry
     cavitation energy         =       0.02147929 Ry
     PV energy                 =      -0.08213668 Ry
     correction to one-el term =     181.43125267 Ry

     iteration # 35     ecut=    50.00 Ry     beta= 0.70
     Davidson diagonalization with overlap
     ethr =  1.22E-11,  avg # of iterations =  2.0

     negative rho (up, down):  1.310E-04 0.000E+00

     add environment contribution to local potential
     Polarization accuracy = 2.4E-12, # of iterations =  45

     total cpu time spent up to now is    11581.8 secs

     total energy              =   -3435.21259254 Ry
     estimated scf accuracy    <       0.00000004 Ry
     electrostatic embedding   =      -0.11411755 Ry
     cavitation energy         =       0.02147929 Ry
     PV energy                 =      -0.08213653 Ry
     correction to one-el term =     181.43161188 Ry

     iteration # 36     ecut=    50.00 Ry     beta= 0.70
     Davidson diagonalization with overlap
     ethr =  1.14E-11,  avg # of iterations =  2.0

     negative rho (up, down):  1.334E-04 0.000E+00

     add environment contribution to local potential
     Polarization accuracy = 2.1E-12, # of iterations =  46

     total cpu time spent up to now is    11840.5 secs

     total energy              =   -3435.21259414 Ry
     estimated scf accuracy    <       0.00000004 Ry
     electrostatic embedding   =      -0.11410485 Ry
     cavitation energy         =       0.02147927 Ry
     PV energy                 =      -0.08213654 Ry
     correction to one-el term =     181.43243794 Ry

     iteration # 37     ecut=    50.00 Ry     beta= 0.70
     Davidson diagonalization with overlap
     ethr =  1.02E-11,  avg # of iterations =  2.0

     negative rho (up, down):  1.402E-04 0.000E+00

     add environment contribution to local potential
     Polarization accuracy = 2.1E-12, # of iterations =  46

     total cpu time spent up to now is    12106.3 secs

     total energy              =   -3435.21259740 Ry
     estimated scf accuracy    <       0.00000004 Ry
     electrostatic embedding   =      -0.11409438 Ry
     cavitation energy         =       0.02147926 Ry
     PV energy                 =      -0.08213664 Ry
     correction to one-el term =     181.43269326 Ry

     iteration # 38     ecut=    50.00 Ry     beta= 0.70
     Davidson diagonalization with overlap
     ethr =  9.73E-12,  avg # of iterations =  2.0

     negative rho (up, down):  1.459E-04 0.000E+00

     add environment contribution to local potential
     Polarization accuracy = 2.2E-12, # of iterations =  45

     total cpu time spent up to now is    12401.9 secs

     total energy              =   -3435.21260161 Ry
     estimated scf accuracy    <       0.00000002 Ry
     electrostatic embedding   =      -0.11410796 Ry
     cavitation energy         =       0.02147929 Ry
     PV energy                 =      -0.08213694 Ry
     correction to one-el term =     181.43100167 Ry

     iteration # 39     ecut=    50.00 Ry     beta= 0.70
     Davidson diagonalization with overlap
     ethr =  6.58E-12,  avg # of iterations =  5.0

     negative rho (up, down):  1.473E-04 0.000E+00

     add environment contribution to local potential
     Polarization accuracy = 2.1E-12, # of iterations =  46

     total cpu time spent up to now is    12680.3 secs

     total energy              =   -3435.21260716 Ry
     estimated scf accuracy    <       0.00000002 Ry
     electrostatic embedding   =      -0.11412255 Ry
     cavitation energy         =       0.02147930 Ry
     PV energy                 =      -0.08213732 Ry
     correction to one-el term =     181.42997066 Ry

     iteration # 40     ecut=    50.00 Ry     beta= 0.70
     Davidson diagonalization with overlap
     ethr =  5.35E-12,  avg # of iterations =  3.0

     negative rho (up, down):  1.438E-04 0.000E+00

     add environment contribution to local potential
     Polarization accuracy = 2.1E-12, # of iterations =  46

     total cpu time spent up to now is    12978.1 secs

     total energy              =   -3435.21261111 Ry
     estimated scf accuracy    <       0.00000001 Ry
     electrostatic embedding   =      -0.11414702 Ry
     cavitation energy         =       0.02147933 Ry
     PV energy                 =      -0.08213749 Ry
     correction to one-el term =     181.42826276 Ry

     iteration # 41     ecut=    50.00 Ry     beta= 0.70
     Davidson diagonalization with overlap
     ethr =  3.83E-12,  avg # of iterations =  2.0

     negative rho (up, down):  1.440E-04 0.000E+00

     add environment contribution to local potential
     Polarization accuracy = 2.2E-12, # of iterations =  45

     total cpu time spent up to now is    13302.4 secs

     total energy              =   -3435.21261508 Ry
     estimated scf accuracy    <          8.9E-09 Ry
     electrostatic embedding   =      -0.11414437 Ry
     cavitation energy         =       0.02147934 Ry
     PV energy                 =      -0.08213733 Ry
     correction to one-el term =     181.42843109 Ry

     iteration # 42     ecut=    50.00 Ry     beta= 0.70
     Davidson diagonalization with overlap
     ethr =  2.44E-12,  avg # of iterations =  2.0

     negative rho (up, down):  1.408E-04 0.000E+00

     add environment contribution to local potential
     Polarization accuracy = 2.8E-12, # of iterations =  45

     total cpu time spent up to now is    13661.9 secs

     total energy              =   -3435.21261704 Ry
     estimated scf accuracy    <          1.3E-09 Ry
     electrostatic embedding   =      -0.11416256 Ry
     cavitation energy         =       0.02147936 Ry
     PV energy                 =      -0.08213735 Ry
     correction to one-el term =     181.42701495 Ry

     iteration # 43     ecut=    50.00 Ry     beta= 0.70
     Davidson diagonalization with overlap
     ethr =  3.52E-13,  avg # of iterations =  6.0

     negative rho (up, down):  1.374E-04 0.000E+00

     the potential shift due to the Gaussian-smeared nuclei is    -1.3136 ev

     total cpu time spent up to now is    13834.1 secs

     End of self-consistent calculation

          k = 0.2500 0.2573 0.0000 ( 35510 PWs)   bands (ev):

   -77.5446 -77.5305 -77.0298 -77.0163 -76.9263 -76.9128 -76.8960 -76.8822
   -76.7876 -76.7431 -76.7219 -76.6469 -48.0142 -48.0002 -47.4229 -47.4088
   -47.2911 -47.2776 -47.2134 -47.2117 -47.1994 -47.1980 -47.1178 -47.1042
   -47.0631 -47.0205 -47.0064 -46.9927 -46.9741 -46.9532 -46.9085 -46.8947
   -46.8910 -46.8781 -46.7971 -46.7932 -46.7834 -46.7795 -46.7242 -46.7079
   -46.6690 -46.6555 -46.6552 -46.5879 -46.5725 -46.5472 -46.5249 -46.4754
   -26.3569 -26.3372 -23.2517 -23.0186 -22.8958 -22.7792 -22.6411 -22.5963
   -22.5260 -22.4459 -22.3802 -22.2845 -22.2222 -22.1303 -22.1048 -22.0597
   -22.0056 -21.9919 -21.9376 -21.9296 -21.8505 -21.7880 -21.7183 -21.7097
   -21.4522 -21.3543 -21.1445 -21.1069 -13.6608 -13.6412 -11.8845 -11.7519
   -11.2751 -11.2452 -11.0930 -10.9358 -10.8656 -10.6838 -10.6717 -10.5378
   -10.5199 -10.3961 -10.3870 -10.3090 -10.2899 -10.2236 -10.2030 -10.1878
   -10.0946 -10.0526 -10.0282  -9.9909  -9.8943  -9.7795  -9.6965  -9.6206
    -9.5656  -9.3756  -9.3697  -9.2761  -9.2291  -9.1549  -9.0475  -9.0212
    -8.8401  -8.7140  -8.6308  -8.5499  -8.4624  -8.3866  -8.3718  -8.2820
    -8.1649  -8.1590  -8.0440  -8.0229  -7.9074  -7.8781  -7.7939  -7.7455
    -7.7229  -7.6276  -7.6092  -7.5217  -7.4871  -7.3812  -7.3534  -7.3334
    -7.2114  -7.1914  -7.1400  -7.0810  -6.9507  -6.9031  -6.8480  -6.7593
    -6.6176  -6.5703  -6.4965  -6.3699  -6.3004  -6.2224  -6.1915  -6.1649
    -6.0513  -5.9736  -5.9726  -5.8010  -5.7463  -5.6059  -5.4846  -5.4108
    -4.5012  -4.4793  -4.4258  -4.3848  -4.3104  -4.2668  -4.2145  -4.1526
    -4.1395  -4.1211  -4.0588  -4.0375  -3.9529  -3.9352  -3.8693  -3.8412
    -3.8357  -3.6914  -3.6617  -3.5989  -3.5524  -3.4346  -3.4189  -3.4018
    -3.1645  -3.1575  -3.0037  -2.8967  -2.7855  -2.6020  -2.5770  -2.5554
    -2.5227  -2.4494  -2.3302  -2.0961  -1.7654  -1.4141  -1.3570  -1.1805
    -1.0831  -0.9566  -0.6540  -0.5609  -0.2702  -0.0335   0.2039   0.2461
     0.2852   0.3736   0.4396   0.6270   0.6857   0.9212   1.0152   1.2045
     1.2719   1.2780   1.3372   1.4501

     the Fermi energy is    -3.3653 ev

!    total energy              =   -3435.21261824 Ry
     estimated scf accuracy    <          7.4E-10 Ry
     smearing contrib. (-TS)   =       0.04849002 Ry
     internal energy E=F+TS    =   -3435.26110826 Ry

     The total energy is F=E-TS. E is the sum of the following terms:
     one-electron contribution =  -25068.67219685 Ry
     hartree contribution      =   12524.30202224 Ry
     xc contribution           =    -447.92433750 Ry
     ewald contribution        =    9642.29479277 Ry
     one-center paw contrib.   =    -266.51351461 Ry
     electrostatic embedding   =      -0.11416372 Ry
     cavitation energy         =       0.02147937 Ry
     PV energy                 =      -0.08213716 Ry
     correction to one-el term =     181.42694721 Ry

     WARNING: you are using the parabolic pbc correction;
              the potential shift above must be added to 
              band and Fermi energies.

     convergence has been achieved in  43 iterations

     negative rho (up, down):  1.374E-04 0.000E+00

     Forces acting on atoms (cartesian axes, Ry/au):

     atom    1 type  1   force =     0.00627115    0.00000000   -0.00494611
     atom    2 type  1   force =    -0.00080238    0.00000000   -0.01681804
     atom    3 type  1   force =     0.00066655    0.00000000   -0.01379924
     atom    4 type  1   force =    -0.00003355    0.00000000    0.06084547
     atom    5 type  2   force =    -0.01266719    0.00000000    0.00458199
     atom    6 type  2   force =     0.01179345    0.00000000    0.00544451
     atom    7 type  1   force =     0.00468727    0.02524235    0.00103465
     atom    8 type  1   force =    -0.00138169    0.01244545    0.00035824
     atom    9 type  2   force =    -0.00229320    0.00000000   -0.00313286
     atom   10 type  2   force =    -0.00339820    0.00000000    0.01036573
     atom   11 type  1   force =     0.00468727   -0.02524235    0.00103465
     atom   12 type  1   force =    -0.00138169   -0.01244545    0.00035824
     atom   13 type  1   force =    -0.00091028    0.00000000    0.00017908
     atom   14 type  1   force =     0.00050869    0.00000000   -0.00178359
     atom   15 type  1   force =    -0.00113991    0.00000000    0.00016400
     atom   16 type  1   force =     0.00275873    0.00000000    0.00622175
     atom   17 type  2   force =     0.01084842    0.00000000    0.00000000
     atom   18 type  2   force =    -0.00986890    0.00000000    0.00000000
     atom   19 type  1   force =    -0.00458027   -0.01280281    0.00000000
     atom   20 type  1   force =     0.00331788   -0.03512135    0.00000000
     atom   21 type  2   force =    -0.00615222    0.00000000    0.00000000
     atom   22 type  2   force =     0.00706769    0.00000000    0.00000000
     atom   23 type  1   force =    -0.00458027    0.01280281    0.00000000
     atom   24 type  1   force =     0.00331788    0.03512135    0.00000000
     atom   25 type  1   force =    -0.00113991    0.00000000   -0.00016400
     atom   26 type  1   force =     0.00275873    0.00000000   -0.00622175
     atom   27 type  1   force =    -0.00091028    0.00000000   -0.00017908
     atom   28 type  1   force =     0.00050869    0.00000000    0.00178359
     atom   29 type  2   force =    -0.01266719    0.00000000   -0.00458199
     atom   30 type  2   force =     0.01179345    0.00000000   -0.00544451
     atom   31 type  1   force =     0.00468727    0.02524235   -0.00103465
     atom   32 type  1   force =    -0.00138169    0.01244545   -0.00035824
     atom   33 type  2   force =    -0.00229320    0.00000000    0.00313286
     atom   34 type  2   force =    -0.00339820    0.00000000   -0.01036573
     atom   35 type  1   force =     0.00468727   -0.02524235   -0.00103465
     atom   36 type  1   force =    -0.00138169   -0.01244545   -0.00035824
     atom   37 type  1   force =     0.00066655    0.00000000    0.01379924
     atom   38 type  1   force =    -0.00003355    0.00000000   -0.06084547
     atom   39 type  1   force =     0.00627115    0.00000000    0.00494611
     atom   40 type  1   force =    -0.00080238    0.00000000    0.01681804
     atom   41 type  3   force =    -0.00680548    0.00000000    0.00076613
     atom   42 type  3   force =    -0.00680548    0.00000000   -0.00076613
     atom   43 type  3   force =    -0.00012232    0.05914752   -0.03177473
     atom   44 type  3   force =    -0.00012232    0.05914752    0.03177473
     atom   45 type  3   force =    -0.00012232   -0.05914752   -0.03177473
     atom   46 type  3   force =    -0.00012232   -0.05914752    0.03177473
     The non-local contrib.  to forces
     atom    1 type  1   force =     1.67920109    0.00000000    0.55380799
     atom    2 type  1   force =     0.03766132    0.00000000    1.12120246
     atom    3 type  1   force =     0.00496957    0.00000000    1.11412224
     atom    4 type  1   force =     0.01136943    0.00000000   -1.49304619
     atom    5 type  2   force =     0.02055699    0.00000000   -0.02024423
     atom    6 type  2   force =    -0.02125281    0.00000000   -0.02120297
     atom    7 type  1   force =    -0.02288099   -0.01142522   -0.08071638
     atom    8 type  1   force =    -0.10979005    0.03033510    0.00859702
     atom    9 type  2   force =     0.01079116    0.00000000    0.03615711
     atom   10 type  2   force =    -0.00945385    0.00000000   -0.03385917
     atom   11 type  1   force =    -0.02288099    0.01142522   -0.08071638
     atom   12 type  1   force =    -0.10979005   -0.03033510    0.00859702
     atom   13 type  1   force =     0.00570813    0.00000000   -0.19254138
     atom   14 type  1   force =     0.02369620    0.00000000    0.04696872
     atom   15 type  1   force =    -0.01426246    0.00000000    0.00859949
     atom   16 type  1   force =    -0.00313921    0.00000000    0.18332428
     atom   17 type  2   force =    -0.00057896    0.00000000    0.00000000
     atom   18 type  2   force =    -0.00366637    0.00000000    0.00000000
     atom   19 type  1   force =     0.02027131    0.01628263    0.00000000
     atom   20 type  1   force =    -0.00851297   -0.03409038    0.00000000
     atom   21 type  2   force =    -0.00317533    0.00000000    0.00000000
     atom   22 type  2   force =    -0.01324601    0.00000000    0.00000000
     atom   23 type  1   force =     0.02027131   -0.01628263    0.00000000
     atom   24 type  1   force =    -0.00851297    0.03409038    0.00000000
     atom   25 type  1   force =    -0.01426246    0.00000000   -0.00859949
     atom   26 type  1   force =    -0.00313921    0.00000000   -0.18332428
     atom   27 type  1   force =     0.00570813    0.00000000    0.19254138
     atom   28 type  1   force =     0.02369620    0.00000000   -0.04696872
     atom   29 type  2   force =     0.02055699    0.00000000    0.02024423
     atom   30 type  2   force =    -0.02125281    0.00000000    0.02120297
     atom   31 type  1   force =    -0.02288099   -0.01142522    0.08071638
     atom   32 type  1   force =    -0.10979005    0.03033510   -0.00859702
     atom   33 type  2   force =     0.01079116    0.00000000   -0.03615711
     atom   34 type  2   force =    -0.00945385    0.00000000    0.03385917
     atom   35 type  1   force =    -0.02288099    0.01142522    0.08071638
     atom   36 type  1   force =    -0.10979005   -0.03033510   -0.00859702
     atom   37 type  1   force =     0.00496957    0.00000000   -1.11412224
     atom   38 type  1   force =     0.01136943    0.00000000    1.49304619
     atom   39 type  1   force =     1.67920109    0.00000000   -0.55380799
     atom   40 type  1   force =     0.03766132    0.00000000   -1.12120246
     atom   41 type  3   force =    -0.09715711    0.00000000    0.02531126
     atom   42 type  3   force =    -0.09715711    0.00000000   -0.02531126
     atom   43 type  3   force =    -0.00014694   -0.09610567    0.07865129
     atom   44 type  3   force =    -0.00014694   -0.09610567   -0.07865129
     atom   45 type  3   force =    -0.00014694    0.09610567    0.07865129
     atom   46 type  3   force =    -0.00014694    0.09610567   -0.07865129
     The ionic contribution  to forces
     atom    1 type  1   force =    -3.65038741    0.00000017  -95.01816457
     atom    2 type  1   force =     0.18502126    0.00000018  -98.36658976
     atom    3 type  1   force =    -0.19630535   -0.00000035  -93.73522765
     atom    4 type  1   force =     0.13562299   -0.00000024  -87.43352237
     atom    5 type  2   force =     5.86591967   -0.00000255 -167.90747910
     atom    6 type  2   force =    -5.66849533   -0.00000231 -169.53439994
     atom    7 type  1   force =     1.20673887   -0.74018930  -61.06949362
     atom    8 type  1   force =    -0.35312951   -1.21557524  -63.68850786
     atom    9 type  2   force =    -1.62138021    0.00000343 -165.93949283
     atom   10 type  2   force =     1.12632065    0.00000308 -169.22717631
     atom   11 type  1   force =     1.20673890    0.74018976  -61.06949086
     atom   12 type  1   force =    -0.35312953    1.21557572  -63.68850546
     atom   13 type  1   force =    -0.17063445   -0.00000156  -35.94111598
     atom   14 type  1   force =    -0.08546934   -0.00000155  -38.73717736
     atom   15 type  1   force =    -0.17684359    0.00001016  -24.90462809
     atom   16 type  1   force =     0.33768227    0.00000970  -26.91365609
     atom   17 type  2   force =     0.13772583    0.00001810   -0.00046733
     atom   18 type  2   force =    -0.15906343    0.00002143   -0.00044368
     atom   19 type  1   force =    -0.16286874    1.10482659   -0.00008119
     atom   20 type  1   force =     0.04851321    0.58210937   -0.00007745
     atom   21 type  2   force =     0.59469535    0.00010936   -0.00027041
     atom   22 type  2   force =    -1.27949179    0.00011652   -0.00025444
     atom   23 type  1   force =    -0.16287129   -1.10497147   -0.00008119
     atom   24 type  1   force =     0.04851624   -0.58226808   -0.00007745
     atom   25 type  1   force =    -0.17683963    0.00001016   24.90442447
     atom   26 type  1   force =     0.33769681    0.00000970   26.91351565
     atom   27 type  1   force =    -0.17063075   -0.00000156   35.94143936
     atom   28 type  1   force =    -0.08546917   -0.00000155   38.73746099
     atom   29 type  2   force =     5.86580203   -0.00000255  167.90776556
     atom   30 type  2   force =    -5.66838413   -0.00000231  169.53468093
     atom   31 type  1   force =     1.20673411   -0.74022076   61.06955750
     atom   32 type  1   force =    -0.35312386   -1.21560159   63.68857513
     atom   33 type  2   force =    -1.62139606    0.00000343  165.93962221
     atom   34 type  2   force =     1.12632746    0.00000308  169.22733598
     atom   35 type  1   force =     1.20673414    0.74022123   61.06955474
     atom   36 type  1   force =    -0.35312388    1.21560206   63.68857273
     atom   37 type  1   force =    -0.19630379   -0.00000035   93.73534449
     atom   38 type  1   force =     0.13562749   -0.00000024   87.43344093
     atom   39 type  1   force =    -3.65043920    0.00000017   95.01828923
     atom   40 type  1   force =     0.18502552    0.00000018   98.36666265
     atom   41 type  3   force =     2.56277503    0.00000002  -15.97961970
     atom   42 type  3   force =     2.56282810    0.00000002   15.97960785
     atom   43 type  3   force =     0.05818374    2.60076520  -17.00558774
     atom   44 type  3   force =     0.05818349    2.60101697   17.00566288
     atom   45 type  3   force =     0.05818374   -2.60076524  -17.00558771
     atom   46 type  3   force =     0.05818349   -2.60101700   17.00566285
     The local contribution  to forces
     atom    1 type  1   force =     1.91362009    0.00000000   94.36943468
     atom    2 type  1   force =    -0.18805888   -0.00000000   97.21427656
     atom    3 type  1   force =     0.18108156    0.00000000   92.54719267
     atom    4 type  1   force =    -0.14088808   -0.00000000   89.18553615
     atom    5 type  2   force =    -5.98878940    0.00000000  167.97185341
     atom    6 type  2   force =     5.79411332    0.00000000  169.58513820
     atom    7 type  1   force =    -1.20487960    0.78849302   61.15207270
     atom    8 type  1   force =     0.48855954    1.21512137   63.66383585
     atom    9 type  2   force =     1.58042121   -0.00000000  165.81037594
     atom   10 type  2   force =    -1.09106066    0.00000000  169.28242837
     atom   11 type  1   force =    -1.20487960   -0.78849302   61.15207270
     atom   12 type  1   force =     0.48855954   -1.21512137   63.66383585
     atom   13 type  1   force =     0.16251434    0.00000000   36.12497758
     atom   14 type  1   force =     0.06434348    0.00000000   38.70253435
     atom   15 type  1   force =     0.18845679    0.00000000   24.89049966
     atom   16 type  1   force =    -0.33052088    0.00000000   26.73996266
     atom   17 type  2   force =    -0.12761929   -0.00000000   -0.00576701
     atom   18 type  2   force =     0.15444487    0.00000000   -0.00585326
     atom   19 type  1   force =     0.13545421   -1.13316682   -0.00241883
     atom   20 type  1   force =    -0.03399315   -0.58323573   -0.00244234
     atom   21 type  2   force =    -0.60414678    0.00000000   -0.00596401
     atom   22 type  2   force =     1.30638957   -0.00000000   -0.00601364
     atom   23 type  1   force =     0.13545670    1.13279811   -0.00241883
     atom   24 type  1   force =    -0.03399626    0.58287786   -0.00244234
     atom   25 type  1   force =     0.18846726    0.00000000  -24.89225244
     atom   26 type  1   force =    -0.33049854    0.00000000  -26.74169584
     atom   27 type  1   force =     0.16251790   -0.00000000  -36.12670345
     atom   28 type  1   force =     0.06435306   -0.00000000  -38.70432284
     atom   29 type  2   force =    -5.98882920    0.00000000 -167.97789020
     atom   30 type  2   force =     5.79415287   -0.00000000 -169.59115304
     atom   31 type  1   force =    -1.20486620    0.78851389  -61.15449106
     atom   32 type  1   force =     0.48854132    1.21513342  -63.66627402
     atom   33 type  2   force =     1.58044347    0.00000000 -165.81620136
     atom   34 type  2   force =    -1.09110574   -0.00000000 -169.28811438
     atom   35 type  1   force =    -1.20486620   -0.78851389  -61.15449106
     atom   36 type  1   force =     0.48854132   -1.21513342  -63.66627402
     atom   37 type  1   force =     0.18108025   -0.00000000  -92.55102825
     atom   38 type  1   force =    -0.14089508   -0.00000000  -89.18918998
     atom   39 type  1   force =     1.91364927    0.00000000  -94.37099686
     atom   40 type  1   force =    -0.18812480   -0.00000000  -97.21571911
     atom   41 type  3   force =    -2.49063989    0.00000000   15.95005148
     atom   42 type  3   force =    -2.49063989    0.00000000  -15.95005148
     atom   43 type  3   force =    -0.05787056   -2.43817389   16.95535199
     atom   44 type  3   force =    -0.05787056   -2.43817389  -16.95535199
     atom   45 type  3   force =    -0.05787056    2.43817389   16.95535199
     atom   46 type  3   force =    -0.05787056    2.43817389  -16.95535199
     The core correction contribution to forces
     atom    1 type  1   force =    -0.01677540    0.00000000   -0.00564377
     atom    2 type  1   force =    -0.00010912    0.00000000   -0.00960996
     atom    3 type  1   force =    -0.00007270    0.00000000   -0.01108139
     atom    4 type  1   force =    -0.00011755   -0.00000000    0.01262833
     atom    5 type  2   force =     0.00000000    0.00000000    0.00000000
     atom    6 type  2   force =     0.00000000    0.00000000    0.00000000
     atom    7 type  1   force =    -0.00000737   -0.00054746    0.00078913
     atom    8 type  1   force =     0.00131003   -0.00061548   -0.00009392
     atom    9 type  2   force =     0.00000000    0.00000000    0.00000000
     atom   10 type  2   force =     0.00000000    0.00000000    0.00000000
     atom   11 type  1   force =    -0.00000737    0.00054746    0.00078913
     atom   12 type  1   force =     0.00131003    0.00061548   -0.00009392
     atom   13 type  1   force =    -0.00007250   -0.00000000    0.00236986
     atom   14 type  1   force =    -0.00020371   -0.00000000   -0.00050206
     atom   15 type  1   force =     0.00022128   -0.00000000   -0.00038701
     atom   16 type  1   force =    -0.00002304    0.00000000   -0.00271745
     atom   17 type  2   force =     0.00000000    0.00000000    0.00000000
     atom   18 type  2   force =     0.00000000    0.00000000    0.00000000
     atom   19 type  1   force =    -0.00005989    0.00006557   -0.00000191
     atom   20 type  1   force =    -0.00004641    0.00104377   -0.00000205
     atom   21 type  2   force =     0.00000000    0.00000000    0.00000000
     atom   22 type  2   force =     0.00000000    0.00000000    0.00000000
     atom   23 type  1   force =    -0.00005989   -0.00006620   -0.00000191
     atom   24 type  1   force =    -0.00004642   -0.00104434   -0.00000205
     atom   25 type  1   force =     0.00022122   -0.00000000    0.00038485
     atom   26 type  1   force =    -0.00002293   -0.00000000    0.00271538
     atom   27 type  1   force =    -0.00007253   -0.00000000   -0.00237219
     atom   28 type  1   force =    -0.00020369    0.00000000    0.00049985
     atom   29 type  2   force =     0.00000000    0.00000000    0.00000000
     atom   30 type  2   force =     0.00000000    0.00000000    0.00000000
     atom   31 type  1   force =    -0.00000742   -0.00054746   -0.00079088
     atom   32 type  1   force =     0.00131004   -0.00061539    0.00009213
     atom   33 type  2   force =     0.00000000    0.00000000    0.00000000
     atom   34 type  2   force =     0.00000000    0.00000000    0.00000000
     atom   35 type  1   force =    -0.00000742    0.00054746   -0.00079088
     atom   36 type  1   force =     0.00131004    0.00061539    0.00009213
     atom   37 type  1   force =    -0.00007260   -0.00000000    0.01107753
     atom   38 type  1   force =    -0.00011753    0.00000000   -0.01263210
     atom   39 type  1   force =    -0.01677613    0.00000000    0.00564153
     atom   40 type  1   force =    -0.00010942    0.00000000    0.00960788
     atom   41 type  3   force =     0.00000000    0.00000000    0.00000000
     atom   42 type  3   force =     0.00000000    0.00000000    0.00000000
     atom   43 type  3   force =     0.00000000    0.00000000    0.00000000
     atom   44 type  3   force =     0.00000000    0.00000000    0.00000000
     atom   45 type  3   force =     0.00000000    0.00000000    0.00000000
     atom   46 type  3   force =     0.00000000    0.00000000    0.00000000
     The Hubbard contrib.    to forces
     atom    1 type  1   force =     0.00000000    0.00000000    0.00000000
     atom    2 type  1   force =     0.00000000    0.00000000    0.00000000
     atom    3 type  1   force =     0.00000000    0.00000000    0.00000000
     atom    4 type  1   force =     0.00000000    0.00000000    0.00000000
     atom    5 type  2   force =     0.00000000    0.00000000    0.00000000
     atom    6 type  2   force =     0.00000000    0.00000000    0.00000000
     atom    7 type  1   force =     0.00000000    0.00000000    0.00000000
     atom    8 type  1   force =     0.00000000    0.00000000    0.00000000
     atom    9 type  2   force =     0.00000000    0.00000000    0.00000000
     atom   10 type  2   force =     0.00000000    0.00000000    0.00000000
     atom   11 type  1   force =     0.00000000    0.00000000    0.00000000
     atom   12 type  1   force =     0.00000000    0.00000000    0.00000000
     atom   13 type  1   force =     0.00000000    0.00000000    0.00000000
     atom   14 type  1   force =     0.00000000    0.00000000    0.00000000
     atom   15 type  1   force =     0.00000000    0.00000000    0.00000000
     atom   16 type  1   force =     0.00000000    0.00000000    0.00000000
     atom   17 type  2   force =     0.00000000    0.00000000    0.00000000
     atom   18 type  2   force =     0.00000000    0.00000000    0.00000000
     atom   19 type  1   force =     0.00000000    0.00000000    0.00000000
     atom   20 type  1   force =     0.00000000    0.00000000    0.00000000
     atom   21 type  2   force =     0.00000000    0.00000000    0.00000000
     atom   22 type  2   force =     0.00000000    0.00000000    0.00000000
     atom   23 type  1   force =     0.00000000    0.00000000    0.00000000
     atom   24 type  1   force =     0.00000000    0.00000000    0.00000000
     atom   25 type  1   force =     0.00000000    0.00000000    0.00000000
     atom   26 type  1   force =     0.00000000    0.00000000    0.00000000
     atom   27 type  1   force =     0.00000000    0.00000000    0.00000000
     atom   28 type  1   force =     0.00000000    0.00000000    0.00000000
     atom   29 type  2   force =     0.00000000    0.00000000    0.00000000
     atom   30 type  2   force =     0.00000000    0.00000000    0.00000000
     atom   31 type  1   force =     0.00000000    0.00000000    0.00000000
     atom   32 type  1   force =     0.00000000    0.00000000    0.00000000
     atom   33 type  2   force =     0.00000000    0.00000000    0.00000000
     atom   34 type  2   force =     0.00000000    0.00000000    0.00000000
     atom   35 type  1   force =     0.00000000    0.00000000    0.00000000
     atom   36 type  1   force =     0.00000000    0.00000000    0.00000000
     atom   37 type  1   force =     0.00000000    0.00000000    0.00000000
     atom   38 type  1   force =     0.00000000    0.00000000    0.00000000
     atom   39 type  1   force =     0.00000000    0.00000000    0.00000000
     atom   40 type  1   force =     0.00000000    0.00000000    0.00000000
     atom   41 type  3   force =     0.00000000    0.00000000    0.00000000
     atom   42 type  3   force =     0.00000000    0.00000000    0.00000000
     atom   43 type  3   force =     0.00000000    0.00000000    0.00000000
     atom   44 type  3   force =     0.00000000    0.00000000    0.00000000
     atom   45 type  3   force =     0.00000000    0.00000000    0.00000000
     atom   46 type  3   force =     0.00000000    0.00000000    0.00000000
     The SCF correction term to forces
     atom    1 type  1   force =     0.00000556   -0.00000001   -0.00001169
     atom    2 type  1   force =     0.00000461   -0.00000001   -0.00001004
     atom    3 type  1   force =    -0.00001584    0.00000001   -0.00001393
     atom    4 type  1   force =     0.00000924    0.00000001   -0.00001944
     atom    5 type  2   force =    -0.00001185    0.00000005   -0.00001884
     atom    6 type  2   force =     0.00000509    0.00000005   -0.00001721
     atom    7 type  1   force =     0.00000207    0.00000178   -0.00000546
     atom    8 type  1   force =    -0.00000356   -0.00001515   -0.00000489
     atom    9 type  2   force =    -0.00000806   -0.00000005   -0.00000016
     atom   10 type  2   force =     0.00001093   -0.00000005   -0.00002214
     atom   11 type  1   force =     0.00000207   -0.00000180   -0.00000547
     atom   12 type  1   force =    -0.00000356    0.00001514   -0.00000490
     atom   13 type  1   force =    -0.00001488    0.00000002    0.00000821
     atom   14 type  1   force =     0.00001498    0.00000002   -0.00000480
     atom   15 type  1   force =    -0.00000375   -0.00000002    0.00001089
     atom   16 type  1   force =     0.00000360   -0.00000002    0.00000452
     atom   17 type  2   force =    -0.00001114    0.00000007    0.00001671
     atom   18 type  2   force =     0.00001243    0.00000008    0.00001670
     atom   19 type  1   force =    -0.00001183   -0.00000026    0.00000616
     atom   20 type  1   force =     0.00001183   -0.00000160    0.00000616
     atom   21 type  2   force =    -0.00001137   -0.00000007    0.00001651
     atom   22 type  2   force =     0.00001316   -0.00000008    0.00001649
     atom   23 type  1   force =    -0.00001183    0.00000028    0.00000616
     atom   24 type  1   force =     0.00001183    0.00000162    0.00000616
     atom   25 type  1   force =    -0.00000374   -0.00000002   -0.00000005
     atom   26 type  1   force =     0.00000360   -0.00000002    0.00000597
     atom   27 type  1   force =    -0.00001490    0.00000002    0.00000020
     atom   28 type  1   force =     0.00001501    0.00000002    0.00001297
     atom   29 type  2   force =    -0.00001221    0.00000005    0.00002626
     atom   30 type  2   force =     0.00000544    0.00000005    0.00002439
     atom   31 type  1   force =     0.00000199    0.00000177    0.00000842
     atom   32 type  1   force =    -0.00000351   -0.00001515    0.00000751
     atom   33 type  2   force =    -0.00000809   -0.00000005    0.00000751
     atom   34 type  2   force =     0.00001100   -0.00000005    0.00002826
     atom   35 type  1   force =     0.00000199   -0.00000178    0.00000842
     atom   36 type  1   force =    -0.00000351    0.00001514    0.00000752
     atom   37 type  1   force =    -0.00001587    0.00000001    0.00001212
     atom   38 type  1   force =     0.00000927    0.00000001    0.00001685
     atom   39 type  1   force =     0.00000558   -0.00000001    0.00000821
     atom   40 type  1   force =     0.00000464   -0.00000001    0.00000664
     atom   41 type  3   force =     0.00000066   -0.00000000   -0.00000211
     atom   42 type  3   force =     0.00000063   -0.00000000    0.00000151
     atom   43 type  3   force =     0.00000085   -0.00000007   -0.00000199
     atom   44 type  3   force =     0.00000086   -0.00000011    0.00000139
     atom   45 type  3   force =     0.00000085    0.00000007   -0.00000199
     atom   46 type  3   force =     0.00000086    0.00000011    0.00000139

     Total force =     0.184687     Total SCF correction =     0.000106

     BFGS Geometry Optimization
     Energy error            =      0.0E+00 Ry
     Gradient error          =      6.1E-02 Ry/Bohr

     number of scf cycles    =   1
     number of bfgs steps    =   0

     energy             new  =   -3435.2126182399 Ry

     new trust radius        =       0.0671422244 bohr
     new conv_thr            =       0.0000000010 Ry


ATOMIC_POSITIONS (crystal)
O             0.0183430168        0.5000000000        0.2703012517
O             0.4709883703        0.5000000000        0.2735130650
O            -0.0015143596        0.0000000000        0.3077415387
O             0.4965707311        0.0000000000        0.2901948301
Ru            0.2376760220        0.0000000000        0.3582841911
Ru            0.7558487723        0.0000000000        0.3572647837
O             0.2470825323        0.3052554899        0.3592326593
O             0.7516005738        0.3090735095        0.3559151053
Ru            0.0023793010        0.5000000000        0.3577153313
Ru            0.5035597175        0.5000000000        0.3530179952
O             0.2470825323        0.6947445101        0.3592326593
O             0.7516005738        0.6909264905        0.3559151053
O            -0.0045521655        0.0000000000        0.4125356453
O             0.5010367183        0.0000000000        0.4115391262
O            -0.0027542385        0.5000000000        0.4459585830
O             0.4935131719        0.5000000000        0.4415040113
Ru           -0.0055304452        0.0000000000        0.5000010000
Ru            0.4987741928        0.0000000000        0.5000010000
O             0.2495591897        0.1893965088        0.5000010000
O             0.7440370747        0.1948375008        0.5000010000
Ru            0.2517867661        0.5000000000        0.5000010000
Ru            0.7441572859        0.5000000000        0.5000010000
O             0.2495591897        0.8106044912        0.5000010000
O             0.7440370747        0.8051634992        0.5000010000
O            -0.0027542385        0.5000000000        0.5540424170
O             0.4935131719        0.5000000000        0.5584969887
O            -0.0045521655        0.0000000000        0.5874653547
O             0.5010367183        0.0000000000        0.5884618738
Ru            0.2376760220        0.0000000000        0.6417168089
Ru            0.7558487723        0.0000000000        0.6427362163
O             0.2470825323        0.3052554899        0.6407683407
O             0.7516005738        0.3090735095        0.6440858947
Ru            0.0023793010        0.5000000000        0.6422856687
Ru            0.5035597175        0.5000000000        0.6469830048
O             0.2470825323        0.6947445101        0.6407683407
O             0.7516005738        0.6909264905        0.6440858947
O            -0.0015143596        0.0000000000        0.6922604613
O             0.4965707311        0.0000000000        0.7098071699
O             0.0183430168        0.5000000000        0.7296997483
O             0.4709883703        0.5000000000        0.7264879350
H             0.1678547419        0.5000000000        0.2598757376
H             0.1678547419        0.5000000000        0.7401242624
H             0.4965644120        0.1239708062        0.2609043663
H             0.4965644120        0.1239708062        0.7390956337
H             0.4965644120        0.8760291938        0.2609043663
H             0.4965644120        0.8760291938        0.7390956337



     Writing config-only to output data dir /storage/home/mgm6007/ixd4/Maria/Strain0_Files/RuO2-110-0-035/RuO2-110-0-035.save/
     NEW-OLD atomic charge density approx. for the potential

     Check: negative core charge=   -0.000001

     negative rho (up, down):  1.335E-04 0.000E+00

     add environment contribution to local potential
     Polarization accuracy = 8.8E-12, # of iterations =  43

     total cpu time spent up to now is    14195.3 secs

     per-process dynamical memory:   211.9 Mb

     Self-consistent Calculation

     iteration #  1     ecut=    50.00 Ry     beta= 0.70
     Davidson diagonalization with overlap
     ethr =  1.00E-06,  avg # of iterations =  9.0

     negative rho (up, down):  3.187E-04 0.000E+00

     add environment contribution to local potential
     Polarization accuracy = 5.8E-12, # of iterations =  44

     total cpu time spent up to now is    14547.9 secs

     total energy              =   -3435.22052444 Ry
     estimated scf accuracy    <       0.01577597 Ry
     electrostatic embedding   =      -0.10824668 Ry
     cavitation energy         =       0.02139117 Ry
     PV energy                 =      -0.08231995 Ry
     correction to one-el term =     182.13577317 Ry

     iteration #  2     ecut=    50.00 Ry     beta= 0.70
     Davidson diagonalization with overlap
     ethr =  4.31E-06,  avg # of iterations =  3.0

     negative rho (up, down):  2.600E-04 0.000E+00

     add environment contribution to local potential
     Polarization accuracy = 4.3E-12, # of iterations =  44

     total cpu time spent up to now is    14839.1 secs

     total energy              =   -3435.22135679 Ry
     estimated scf accuracy    <       0.02516640 Ry
     electrostatic embedding   =      -0.10904698 Ry
     cavitation energy         =       0.02144338 Ry
     PV energy                 =      -0.08224315 Ry
     correction to one-el term =     182.26435291 Ry

     iteration #  3     ecut=    50.00 Ry     beta= 0.70
     Davidson diagonalization with overlap
     ethr =  4.31E-06,  avg # of iterations =  1.0

     negative rho (up, down):  2.572E-04 0.000E+00

     add environment contribution to local potential
     Polarization accuracy = 5.2E-12, # of iterations =  44

     total cpu time spent up to now is    15143.3 secs

     total energy              =   -3435.22250150 Ry
     estimated scf accuracy    <       0.00201941 Ry
     electrostatic embedding   =      -0.10930726 Ry
     cavitation energy         =       0.02143878 Ry
     PV energy                 =      -0.08225971 Ry
     correction to one-el term =     182.22239194 Ry

     iteration #  4     ecut=    50.00 Ry     beta= 0.70
     Davidson diagonalization with overlap
     ethr =  5.52E-07,  avg # of iterations =  2.0

     negative rho (up, down):  2.292E-04 0.000E+00

     add environment contribution to local potential
     Polarization accuracy = 5.1E-12, # of iterations =  44

     total cpu time spent up to now is    15453.4 secs

     total energy              =   -3435.22263847 Ry
     estimated scf accuracy    <       0.00074850 Ry
     electrostatic embedding   =      -0.11041392 Ry
     cavitation energy         =       0.02144289 Ry
     PV energy                 =      -0.08226356 Ry
     correction to one-el term =     182.20640106 Ry

     iteration #  5     ecut=    50.00 Ry     beta= 0.70
     Davidson diagonalization with overlap
     ethr =  2.05E-07,  avg # of iterations =  2.0

     negative rho (up, down):  1.692E-04 0.000E+00

     add environment contribution to local potential
     Polarization accuracy = 4.9E-12, # of iterations =  45

     total cpu time spent up to now is    15778.8 secs

     total energy              =   -3435.22269994 Ry
     estimated scf accuracy    <       0.00012964 Ry
     electrostatic embedding   =      -0.11103162 Ry
     cavitation energy         =       0.02144138 Ry
     PV energy                 =      -0.08226757 Ry
     correction to one-el term =     182.16448894 Ry

     iteration #  6     ecut=    50.00 Ry     beta= 0.70
     Davidson diagonalization with overlap
     ethr =  3.54E-08,  avg # of iterations =  2.0

     negative rho (up, down):  1.320E-04 0.000E+00

     add environment contribution to local potential
     Polarization accuracy = 5.2E-12, # of iterations =  44

     total cpu time spent up to now is    16047.6 secs

     total energy              =   -3435.22275124 Ry
     estimated scf accuracy    <       0.00008500 Ry
     electrostatic embedding   =      -0.11201808 Ry
     cavitation energy         =       0.02143981 Ry
     PV energy                 =      -0.08227242 Ry
     correction to one-el term =     182.08529945 Ry

     iteration #  7     ecut=    50.00 Ry     beta= 0.70
     Davidson diagonalization with overlap
     ethr =  2.32E-08,  avg # of iterations =  2.0

     negative rho (up, down):  9.080E-05 0.000E+00

     add environment contribution to local potential
     Polarization accuracy = 5.1E-12, # of iterations =  44

     total cpu time spent up to now is    16355.7 secs

     total energy              =   -3435.22276913 Ry
     estimated scf accuracy    <       0.00005957 Ry
     electrostatic embedding   =      -0.11258762 Ry
     cavitation energy         =       0.02143939 Ry
     PV energy                 =      -0.08227367 Ry
     correction to one-el term =     182.02990583 Ry

     iteration #  8     ecut=    50.00 Ry     beta= 0.70
     Davidson diagonalization with overlap
     ethr =  1.63E-08,  avg # of iterations =  2.0

     negative rho (up, down):  3.414E-05 0.000E+00

     add environment contribution to local potential
     Polarization accuracy = 3.1E-12, # of iterations =  44

     total cpu time spent up to now is    16675.9 secs

     total energy              =   -3435.22278141 Ry
     estimated scf accuracy    <       0.00003795 Ry
     electrostatic embedding   =      -0.11333371 Ry
     cavitation energy         =       0.02143916 Ry
     PV energy                 =      -0.08227401 Ry
     correction to one-el term =     181.95005857 Ry

     iteration #  9     ecut=    50.00 Ry     beta= 0.70
     Davidson diagonalization with overlap
     ethr =  1.04E-08,  avg # of iterations =  4.0

     negative rho (up, down):  2.437E-05 0.000E+00

     add environment contribution to local potential
     Polarization accuracy = 9.5E-12, # of iterations =  43

     total cpu time spent up to now is    16981.3 secs

     total energy              =   -3435.22280392 Ry
     estimated scf accuracy    <       0.00001947 Ry
     electrostatic embedding   =      -0.11515867 Ry
     cavitation energy         =       0.02144102 Ry
     PV energy                 =      -0.08227130 Ry
     correction to one-el term =     181.75239562 Ry

     iteration # 10     ecut=    50.00 Ry     beta= 0.70
     Davidson diagonalization with overlap
     ethr =  5.32E-09,  avg # of iterations =  3.0

     negative rho (up, down):  1.977E-05 0.000E+00

     add environment contribution to local potential
     Polarization accuracy = 5.3E-12, # of iterations =  45

     total cpu time spent up to now is    17222.0 secs

     total energy              =   -3435.22280769 Ry
     estimated scf accuracy    <       0.00000896 Ry
     electrostatic embedding   =      -0.11590204 Ry
     cavitation energy         =       0.02144323 Ry
     PV energy                 =      -0.08226786 Ry
     correction to one-el term =     181.67334168 Ry

     iteration # 11     ecut=    50.00 Ry     beta= 0.70
     Davidson diagonalization with overlap
     ethr =  2.45E-09,  avg # of iterations =  3.0

     negative rho (up, down):  2.113E-05 0.000E+00

     add environment contribution to local potential
     Polarization accuracy = 6.1E-12, # of iterations =  44

     total cpu time spent up to now is    17545.6 secs

     total energy              =   -3435.22281313 Ry
     estimated scf accuracy    <       0.00000422 Ry
     electrostatic embedding   =      -0.11668044 Ry
     cavitation energy         =       0.02144682 Ry
     PV energy                 =      -0.08226177 Ry
     correction to one-el term =     181.59458199 Ry

     iteration # 12     ecut=    50.00 Ry     beta= 0.70
[...]
     atom    5 type  2   force =    -6.21282567   -0.00000000  167.68746284
     atom    6 type  2   force =     6.04345970    0.00000000  168.79204623
     atom    7 type  1   force =    -0.99406937    1.45696168   60.90861421
     atom    8 type  1   force =     0.68103984    1.46776834   63.30699607
     atom    9 type  2   force =     1.56378350   -0.00000000  165.44834644
     atom   10 type  2   force =    -1.44013051    0.00000000  169.24114624
     atom   11 type  1   force =    -0.99406937   -1.45696168   60.90861421
     atom   12 type  1   force =     0.68103984   -1.46776834   63.30699607
     atom   13 type  1   force =     0.25587291    0.00000000   35.98024562
     atom   14 type  1   force =    -0.09182451    0.00000000   38.70735591
     atom   15 type  1   force =     0.21582053    0.00000000   24.90384962
     atom   16 type  1   force =    -0.25794219   -0.00000000   26.72658233
     atom   17 type  2   force =     0.12038619   -0.00000000   -0.00579205
     atom   18 type  2   force =    -0.09221974    0.00000000   -0.00586967
     atom   19 type  1   force =    -0.03997772   -1.63057495   -0.00242624
     atom   20 type  1   force =     0.06293923   -1.64679980   -0.00243358
     atom   21 type  2   force =    -0.96657471   -0.00000000   -0.00596408
     atom   22 type  2   force =     1.11839585   -0.00000000   -0.00598187
     atom   23 type  1   force =    -0.03997663    1.63020606   -0.00242624
     atom   24 type  1   force =     0.06293770    1.64643218   -0.00243358
     atom   25 type  1   force =     0.21582624    0.00000000  -24.90560677
     atom   26 type  1   force =    -0.25793902    0.00000000  -26.72832059
     atom   27 type  1   force =     0.25587383   -0.00000000  -35.98197294
     atom   28 type  1   force =    -0.09181880   -0.00000000  -38.70914576
     atom   29 type  2   force =    -6.21286287    0.00000000 -167.69347557
     atom   30 type  2   force =     6.04349564    0.00000000 -168.79805142
     atom   31 type  1   force =    -0.99405348    1.45698616  -60.91103060
     atom   32 type  1   force =     0.68102094    1.46778356  -63.30943116
     atom   33 type  2   force =     1.56379998    0.00000000 -165.45418235
     atom   34 type  2   force =    -1.44016540   -0.00000000 -169.24685361
     atom   35 type  1   force =    -0.99405348   -1.45698616  -60.91103060
     atom   36 type  1   force =     0.68102094   -1.46778356  -63.30943116
     atom   37 type  1   force =     0.19946471    0.00000000  -92.46292906
     atom   38 type  1   force =    -0.14706300   -0.00000000  -89.14891622
     atom   39 type  1   force =     1.82982257   -0.00000000  -94.04164792
     atom   40 type  1   force =    -0.34242900    0.00000000  -96.74090619
     atom   41 type  3   force =    -2.54396196    0.00000000   15.93632887
     atom   42 type  3   force =    -2.54396196    0.00000000  -15.93632887
     atom   43 type  3   force =    -0.05447014   -2.28854120   16.70826596
     atom   44 type  3   force =    -0.05447014   -2.28854120  -16.70826596
     atom   45 type  3   force =    -0.05447014    2.28854120   16.70826596
     atom   46 type  3   force =    -0.05447014    2.28854120  -16.70826596
     The core correction contribution to forces
     atom    1 type  1   force =    -0.01694603   -0.00000000   -0.00557182
     atom    2 type  1   force =     0.00003289   -0.00000000   -0.00989283
     atom    3 type  1   force =    -0.00000737    0.00000000   -0.01125342
     atom    4 type  1   force =    -0.00005035   -0.00000000    0.01318427
     atom    5 type  2   force =     0.00000000    0.00000000    0.00000000
     atom    6 type  2   force =     0.00000000    0.00000000    0.00000000
     atom    7 type  1   force =    -0.00021492   -0.00032124    0.00096214
     atom    8 type  1   force =     0.00084722   -0.00032058   -0.00000607
     atom    9 type  2   force =     0.00000000    0.00000000    0.00000000
     atom   10 type  2   force =     0.00000000    0.00000000    0.00000000
     atom   11 type  1   force =    -0.00021492    0.00032124    0.00096214
     atom   12 type  1   force =     0.00084722    0.00032058   -0.00000607
     atom   13 type  1   force =    -0.00015170    0.00000000    0.00240591
     atom   14 type  1   force =    -0.00007203    0.00000000   -0.00066220
     atom   15 type  1   force =     0.00022738    0.00000000   -0.00036578
     atom   16 type  1   force =    -0.00005217    0.00000000   -0.00291671
     atom   17 type  2   force =     0.00000000    0.00000000    0.00000000
     atom   18 type  2   force =     0.00000000    0.00000000    0.00000000
     atom   19 type  1   force =    -0.00006457    0.00007676   -0.00000195
     atom   20 type  1   force =     0.00000650    0.00018808   -0.00000196
     atom   21 type  2   force =     0.00000000    0.00000000    0.00000000
     atom   22 type  2   force =     0.00000000    0.00000000    0.00000000
     atom   23 type  1   force =    -0.00006456   -0.00007739   -0.00000195
     atom   24 type  1   force =     0.00000649   -0.00018869   -0.00000196
     atom   25 type  1   force =     0.00022734   -0.00000000    0.00036357
     atom   26 type  1   force =    -0.00005212   -0.00000000    0.00291467
     atom   27 type  1   force =    -0.00015171   -0.00000000   -0.00240828
     atom   28 type  1   force =    -0.00007203   -0.00000000    0.00065998
     atom   29 type  2   force =     0.00000000    0.00000000    0.00000000
     atom   30 type  2   force =     0.00000000    0.00000000    0.00000000
     atom   31 type  1   force =    -0.00021496   -0.00032122   -0.00096384
     atom   32 type  1   force =     0.00084724   -0.00032047    0.00000427
     atom   33 type  2   force =     0.00000000    0.00000000    0.00000000
     atom   34 type  2   force =     0.00000000    0.00000000    0.00000000
     atom   35 type  1   force =    -0.00021496    0.00032122   -0.00096384
     atom   36 type  1   force =     0.00084724    0.00032047    0.00000427
     atom   37 type  1   force =    -0.00000732   -0.00000000    0.01124956
     atom   38 type  1   force =    -0.00005033    0.00000000   -0.01318808
     atom   39 type  1   force =    -0.01694674   -0.00000000    0.00556953
     atom   40 type  1   force =     0.00003272   -0.00000000    0.00989079
     atom   41 type  3   force =     0.00000000    0.00000000    0.00000000
     atom   42 type  3   force =     0.00000000    0.00000000    0.00000000
     atom   43 type  3   force =     0.00000000    0.00000000    0.00000000
     atom   44 type  3   force =     0.00000000    0.00000000    0.00000000
     atom   45 type  3   force =     0.00000000    0.00000000    0.00000000
     atom   46 type  3   force =     0.00000000    0.00000000    0.00000000
     The Hubbard contrib.    to forces
     atom    1 type  1   force =     0.00000000    0.00000000    0.00000000
     atom    2 type  1   force =     0.00000000    0.00000000    0.00000000
     atom    3 type  1   force =     0.00000000    0.00000000    0.00000000
     atom    4 type  1   force =     0.00000000    0.00000000    0.00000000
     atom    5 type  2   force =     0.00000000    0.00000000    0.00000000
     atom    6 type  2   force =     0.00000000    0.00000000    0.00000000
     atom    7 type  1   force =     0.00000000    0.00000000    0.00000000
     atom    8 type  1   force =     0.00000000    0.00000000    0.00000000
     atom    9 type  2   force =     0.00000000    0.00000000    0.00000000
     atom   10 type  2   force =     0.00000000    0.00000000    0.00000000
     atom   11 type  1   force =     0.00000000    0.00000000    0.00000000
     atom   12 type  1   force =     0.00000000    0.00000000    0.00000000
     atom   13 type  1   force =     0.00000000    0.00000000    0.00000000
     atom   14 type  1   force =     0.00000000    0.00000000    0.00000000
     atom   15 type  1   force =     0.00000000    0.00000000    0.00000000
     atom   16 type  1   force =     0.00000000    0.00000000    0.00000000
     atom   17 type  2   force =     0.00000000    0.00000000    0.00000000
     atom   18 type  2   force =     0.00000000    0.00000000    0.00000000
     atom   19 type  1   force =     0.00000000    0.00000000    0.00000000
     atom   20 type  1   force =     0.00000000    0.00000000    0.00000000
     atom   21 type  2   force =     0.00000000    0.00000000    0.00000000
     atom   22 type  2   force =     0.00000000    0.00000000    0.00000000
     atom   23 type  1   force =     0.00000000    0.00000000    0.00000000
     atom   24 type  1   force =     0.00000000    0.00000000    0.00000000
     atom   25 type  1   force =     0.00000000    0.00000000    0.00000000
     atom   26 type  1   force =     0.00000000    0.00000000    0.00000000
     atom   27 type  1   force =     0.00000000    0.00000000    0.00000000
     atom   28 type  1   force =     0.00000000    0.00000000    0.00000000
     atom   29 type  2   force =     0.00000000    0.00000000    0.00000000
     atom   30 type  2   force =     0.00000000    0.00000000    0.00000000
     atom   31 type  1   force =     0.00000000    0.00000000    0.00000000
     atom   32 type  1   force =     0.00000000    0.00000000    0.00000000
     atom   33 type  2   force =     0.00000000    0.00000000    0.00000000
     atom   34 type  2   force =     0.00000000    0.00000000    0.00000000
     atom   35 type  1   force =     0.00000000    0.00000000    0.00000000
     atom   36 type  1   force =     0.00000000    0.00000000    0.00000000
     atom   37 type  1   force =     0.00000000    0.00000000    0.00000000
     atom   38 type  1   force =     0.00000000    0.00000000    0.00000000
     atom   39 type  1   force =     0.00000000    0.00000000    0.00000000
     atom   40 type  1   force =     0.00000000    0.00000000    0.00000000
     atom   41 type  3   force =     0.00000000    0.00000000    0.00000000
     atom   42 type  3   force =     0.00000000    0.00000000    0.00000000
     atom   43 type  3   force =     0.00000000    0.00000000    0.00000000
     atom   44 type  3   force =     0.00000000    0.00000000    0.00000000
     atom   45 type  3   force =     0.00000000    0.00000000    0.00000000
     atom   46 type  3   force =     0.00000000    0.00000000    0.00000000
     The SCF correction term to forces
     atom    1 type  1   force =    -0.00000168    0.00000000   -0.00000046
     atom    2 type  1   force =     0.00000160    0.00000000   -0.00000004
     atom    3 type  1   force =    -0.00000195   -0.00000000    0.00000024
     atom    4 type  1   force =     0.00000222    0.00000000   -0.00000007
     atom    5 type  2   force =    -0.00000000   -0.00000000    0.00000002
     atom    6 type  2   force =    -0.00000034   -0.00000000   -0.00000152
     atom    7 type  1   force =    -0.00000007   -0.00000064    0.00000073
     atom    8 type  1   force =     0.00000005   -0.00000168   -0.00000008
     atom    9 type  2   force =    -0.00000225    0.00000000    0.00000122
     atom   10 type  2   force =     0.00000246    0.00000000    0.00000197
     atom   11 type  1   force =    -0.00000007    0.00000064    0.00000073
     atom   12 type  1   force =     0.00000005    0.00000168   -0.00000008
     atom   13 type  1   force =    -0.00000129   -0.00000000   -0.00000033
     atom   14 type  1   force =     0.00000129   -0.00000000   -0.00000107
     atom   15 type  1   force =     0.00000033    0.00000000    0.00000134
     atom   16 type  1   force =    -0.00000051    0.00000000    0.00000122
     atom   17 type  2   force =    -0.00000174   -0.00000000    0.00000001
     atom   18 type  2   force =     0.00000221   -0.00000000    0.00000001
     atom   19 type  1   force =    -0.00000064    0.00000202    0.00000001
     atom   20 type  1   force =     0.00000063    0.00000006    0.00000000
     atom   21 type  2   force =    -0.00000037    0.00000000    0.00000002
     atom   22 type  2   force =     0.00000004   -0.00000000    0.00000001
     atom   23 type  1   force =    -0.00000064   -0.00000202    0.00000001
     atom   24 type  1   force =     0.00000063   -0.00000006    0.00000000
     atom   25 type  1   force =     0.00000033    0.00000000   -0.00000132
     atom   26 type  1   force =    -0.00000051    0.00000000   -0.00000121
     atom   27 type  1   force =    -0.00000129   -0.00000000    0.00000034
     atom   28 type  1   force =     0.00000129   -0.00000000    0.00000109
     atom   29 type  2   force =    -0.00000001   -0.00000000    0.00000000
     atom   30 type  2   force =    -0.00000033    0.00000000    0.00000154
     atom   31 type  1   force =    -0.00000007   -0.00000064   -0.00000073
     atom   32 type  1   force =     0.00000005   -0.00000169    0.00000009
     atom   33 type  2   force =    -0.00000224    0.00000000   -0.00000122
     atom   34 type  2   force =     0.00000245    0.00000000   -0.00000196
     atom   35 type  1   force =    -0.00000007    0.00000064   -0.00000073
     atom   36 type  1   force =     0.00000005    0.00000169    0.00000009
     atom   37 type  1   force =    -0.00000195   -0.00000000   -0.00000025
     atom   38 type  1   force =     0.00000222   -0.00000000    0.00000007
     atom   39 type  1   force =    -0.00000168    0.00000000    0.00000046
     atom   40 type  1   force =     0.00000160    0.00000000    0.00000003
     atom   41 type  3   force =    -0.00000012   -0.00000000   -0.00000010
     atom   42 type  3   force =    -0.00000012    0.00000000    0.00000010
     atom   43 type  3   force =     0.00000022   -0.00000024    0.00000009
     atom   44 type  3   force =     0.00000022   -0.00000024   -0.00000009
     atom   45 type  3   force =     0.00000022    0.00000024    0.00000009
     atom   46 type  3   force =     0.00000022    0.00000024   -0.00000009

     Total force =     0.000250     Total SCF correction =     0.000011
     Energy error            =      5.4E-08 Ry
     Gradient error          =      5.8E-05 Ry/Bohr

     bfgs converged in  30 scf cycles and  29 bfgs steps
     (criteria: energy <  1.0E-04 Ry, force <  1.0E-04 Ry/Bohr)

     End of BFGS Geometry Optimization

     Final energy             =   -3435.2309724008 Ry

     File /storage/home/mgm6007/ixd4/Maria/Strain0_Files/RuO2-110-0-035/RuO2-110-0-035.bfgs deleted, as requested
Begin final coordinates

ATOMIC_POSITIONS (crystal)
O             0.0149792315        0.5000000000        0.2696403913
O             0.4751348517        0.5000000000        0.2721653837
O            -0.0008570685        0.0000000000        0.3071264122
O             0.4970394996        0.0000000000        0.2884749269
Ru            0.2382576505        0.0000000000        0.3578633472
Ru            0.7566978889        0.0000000000        0.3570052577
O             0.2468040274        0.3071232131        0.3588830361
O             0.7501340935        0.3094476619        0.3556717924
Ru           -0.0001363149        0.5000000000        0.3571959262
Ru            0.4999722200        0.5000000000        0.3519735152
O             0.2468040274        0.6928767869        0.3588830361
O             0.7501340935        0.6905523381        0.3556717924
O            -0.0033722507        0.0000000000        0.4120880490
O             0.5000062005        0.0000000000        0.4112767934
O            -0.0018546253        0.5000000000        0.4460327740
O             0.4975875939        0.5000000000        0.4415912144
Ru           -0.0025351595        0.0000000000        0.5000010000
Ru            0.4983104528        0.0000000000        0.5000010000
O             0.2498363621        0.1896368239        0.5000010000
O             0.7460090321        0.1904131732        0.5000010000
Ru            0.2529657656        0.5000000000        0.5000010000
Ru            0.7442440226        0.5000000000        0.5000010000
O             0.2498363621        0.8103641761        0.5000010000
O             0.7460090321        0.8095878268        0.5000010000
O            -0.0018546253        0.5000000000        0.5539682260
O             0.4975875939        0.5000000000        0.5584097856
O            -0.0033722507        0.0000000000        0.5879129510
O             0.5000062005        0.0000000000        0.5887242066
Ru            0.2382576505        0.0000000000        0.6421376528
Ru            0.7566978889        0.0000000000        0.6429957423
O             0.2468040274        0.3071232131        0.6411179639
O             0.7501340935        0.3094476619        0.6443292076
Ru           -0.0001363149        0.5000000000        0.6428050738
Ru            0.4999722200        0.5000000000        0.6480274848
O             0.2468040274        0.6928767869        0.6411179639
O             0.7501340935        0.6905523381        0.6443292076
O            -0.0008570685        0.0000000000        0.6928755878
O             0.4970394996        0.0000000000        0.7115270731
O             0.0149792315        0.5000000000        0.7303606087
O             0.4751348517        0.5000000000        0.7278356163
H             0.1640674890        0.5000000000        0.2583712043
H             0.1640674890        0.5000000000        0.7416287957
H             0.4969492285        0.1262064564        0.2615018510
H             0.4969492285        0.1262064564        0.7384981490
H             0.4969492285        0.8737935436        0.2615018510
H             0.4969492285        0.8737935436        0.7384981490
End final coordinates



     Writing all to output data dir /storage/home/mgm6007/ixd4/Maria/Strain0_Files/RuO2-110-0-035/RuO2-110-0-035.save/
 
     init_run     :    426.75s CPU   1066.82s WALL (       1 calls)
     electrons    :  57732.79s CPU 138169.24s WALL (      30 calls)
     update_pot   :     50.17s CPU     50.20s WALL (      29 calls)
     forces       :     46.79s CPU     47.34s WALL (      30 calls)

     Called by init_run:
     wfcinit      :      0.49s CPU      0.50s WALL (       1 calls)
     potinit      :    338.41s CPU    729.68s WALL (       1 calls)
     hinit0       :     87.38s CPU    336.15s WALL (       1 calls)

     Called by electrons:
     c_bands      :    714.58s CPU    715.35s WALL (     568 calls)
     sum_band     :    151.30s CPU    151.50s WALL (     568 calls)
     v_of_rho     :     73.59s CPU     73.86s WALL (     572 calls)
     newd         :     41.59s CPU     41.61s WALL (     572 calls)
     PAW_pot      :     69.48s CPU     69.53s WALL (     601 calls)
     mix_rho      :    396.68s CPU    396.90s WALL (     568 calls)

     Called by c_bands:
     init_us_2    :      6.52s CPU      6.55s WALL (    1166 calls)
     init_us_2:cp :      6.51s CPU      6.54s WALL (    1166 calls)
     cegterg      :    687.85s CPU    688.44s WALL (     568 calls)

     Called by *egterg:
     cdiaghg      :     83.54s CPU     83.57s WALL (    1728 calls)
     h_psi        :    354.51s CPU    354.99s WALL (    1784 calls)
     s_psi        :     53.15s CPU     53.17s WALL (    1784 calls)
     g_psi        :      1.69s CPU      1.69s WALL (    1215 calls)

     Called by h_psi:
     h_psi:calbec :     52.82s CPU     52.84s WALL (    1784 calls)
     vloc_psi     :    244.39s CPU    244.81s WALL (    1784 calls)
     add_vuspsi   :     53.10s CPU     53.12s WALL (    1784 calls)

     General routines
     calbec       :     83.25s CPU     83.30s WALL (    2501 calls)
     fft          :  14127.67s CPU  14129.44s WALL (    7761 calls)
     ffts         :    146.58s CPU    146.59s WALL (  227688 calls)
     fftw         :    220.43s CPU    220.66s WALL (  657860 calls)
     interpolate  :  14080.25s CPU  14082.01s WALL (     572 calls)
 
     Parallel routines
 
     Environ routines
 
     PWSCF        :     17h 3m CPU   1d16h42m WALL

 
   This run was terminated on:  13:11: 5  21Jul2023            

=------------------------------------------------------------------------------=
   JOB DONE.
=------------------------------------------------------------------------------=
