
     Program PWSCF v.7.2 starts on 26Jul2023 at 11:20:48 
        Git branch: heads/qe-7.2
        Last git commit: b4c5e8deeb7d1863e7553a87b45f8d22c21926a5
        Last git commit date: Mon Mar 27 16:12:09 2023 +0000
        Last git commit subject: Merge branch 'merge_fix_hubbard' into 'develop'

     This program is part of the open-source Quantum ESPRESSO suite
     for quantum simulation of materials; please cite
         "P. Giannozzi et al., J. Phys.:Condens. Matter 21 395502 (2009);
         "P. Giannozzi et al., J. Phys.:Condens. Matter 29 465901 (2017);
         "P. Giannozzi et al., J. Chem. Phys. 152 154105 (2020);
          URL http://www.quantum-espresso.org", 
     in publications or presentations arising from this work. More details at
     http://www.quantum-espresso.org/quote

     Parallel version (MPI), running on    20 processors

     MPI processes distributed on     1 nodes
     88512 MiB available memory on the printing compute node when the environment starts
 
     Reading input from RuO2-110-0-0124.in

     Current dimensions of program PWSCF are:
     Max number of different atomic species (ntypx) = 10
     Max number of k-points (npk) =  40000
     Max angular momentum in pseudopotentials (lmaxx) =  4
 
     Reading input from environ.in:
     * Environ restarting
     * setting up water environment
     * using electronic solvent mode
     * setting boundary derivatives method to SCCS default
     
     file O.pbe-n-kjpaw_psl.0.1.UPF: wavefunction(s)  2P renormalized
     Message from routine setup:
     using ibrav=0 with symmetry is DISCOURAGED, use correct ibrav instead
 
     R & G space division:  proc/nbgrp/npool/nimage =      20
     Subspace diagonalization in iterative solution of the eigenvalue problem:
     one sub-group per band group will be used
     scalapack distributed-memory algorithm (size of sub-group:  2*  2 procs)

 
     Parallelization info
     --------------------
     sticks:   dense  smooth     PW     G-vecs:    dense   smooth      PW
     Min         276     110     29                54982    13912    1877
     Max         277     111     30                54993    13923    1888
     Sum        5537    2217    585              1099789   278381   37601
 
     Using Slab Decomposition
 


     bravais-lattice index     =            0
     lattice parameter (alat)  =      12.3824  a.u.
     unit-cell volume          =    5825.9133 (a.u.)^3
     number of atoms/cell      =           48
     number of atomic types    =            3
     number of electrons       =       368.00
     number of Kohn-Sham states=          221
     kinetic-energy cutoff     =      50.0000  Ry
     charge density cutoff     =     500.0000  Ry
     scf convergence threshold =      1.0E-09
     mixing beta               =       0.7000
     number of iterations used =            8  local-TF  mixing
     energy convergence thresh.=      1.0E-04
     force convergence thresh. =      1.0E-04
     Exchange-correlation= PBE
                           (   1   4   3   4   0   0   0)
     nstep                     =          200


     ================================================================================
 
                                  Environ Setup Summary

     ================================================================================
 
     Please cite

          O. Andreussi, I. Dabo and N. Marzari, J. Chem. Phys. 136, 064102 (2012)

     in publications or presentations arising from this work.

     ================================================================================
 
     Parameters
     ==========

     compensation onset threshold      =               0.1000E+00
     static permittivity               =                    78.30
     surface tension in input (dyn/cm) =                    47.90
     surface tension in internal units =               0.6153E-04
     external pressure in input (GPa)  =                    -0.36
     external pressure in inter. units =              -0.2447E-04

     Solvent Boundary
     ================

     solvent mode                      =               electronic
     derivatives method                =                    chain
     numerical core for derivatives    =                      fft
     switching function adopted        =                     SCCS
     density limit for vacuum region   =               0.5000E-02
     density limit for bulk solvent    =               0.1000E-03

     Electrostatic Setup
     ===================

     electrostatic problem to solve    =              generalized
     numerical solver adopted          =                       cg
     type of auxiliary density adopted =                     none
     numerical core for poisson        =                      fft
     type of pbc corrections           =                parabolic
     numerical core for corrections    =                      1da

     ================================================================================
 

     celldm(1)=  12.382447  celldm(2)=   0.000000  celldm(3)=   0.000000
     celldm(4)=   0.000000  celldm(5)=   0.000000  celldm(6)=   0.000000

     crystal axes: (cart. coord. in units of alat)
               a(1) = (   1.000000   0.000000   0.000000 )  
               a(2) = (   0.000000   0.908473   0.000000 )  
               a(3) = (   0.000000   0.000000   3.377790 )  

     reciprocal axes: (cart. coord. in units 2 pi/alat)
               b(1) = (  1.000000  0.000000  0.000000 )  
               b(2) = (  0.000000  1.100748  0.000000 )  
               b(3) = (  0.000000  0.000000  0.296052 )  


     PseudoPot. # 1 for O  read from file:
     /gpfs/group/ixd4/default/Simon/pseudopotentials/materialscloud/SSSP_1.3.0_PBE_efficiency/O.pbe-n-kjpaw_psl.0.1.UPF
     MD5 check sum: 0234752ac141de4415c5fc33072bef88
     Pseudo is Projector augmented-wave + core cor, Zval =  6.0
     Generated using "atomic" code by A. Dal Corso  v.5.0.99 svn rev. 10869
     Shape of augmentation charge: BESSEL
     Using radial grid of 1095 points,  4 beta functions with: 
                l(1) =   0
                l(2) =   0
                l(3) =   1
                l(4) =   1
     Q(r) pseudized with 0 coefficients 


     PseudoPot. # 2 for Ru read from file:
     /gpfs/group/ixd4/default/Simon/pseudopotentials/materialscloud/SSSP_1.3.0_PBE_efficiency/Ru_ONCV_PBE-1.0.oncvpsp.upf
     MD5 check sum: be037bb81c227cfb9b1461a9f099f4bd
     Pseudo is Norm-conserving, Zval = 16.0
     Generated using ONCVPSP code by D. R. Hamann
     Using radial grid of 1458 points,  6 beta functions with: 
                l(1) =   0
                l(2) =   0
                l(3) =   1
                l(4) =   1
                l(5) =   2
                l(6) =   2

     PseudoPot. # 3 for H  read from file:
     /gpfs/group/ixd4/default/Simon/pseudopotentials/materialscloud/SSSP_1.3.0_PBE_efficiency/H.pbe-rrkjus_psl.1.0.0.UPF
     MD5 check sum: f52b6d4d1c606e5624b1dc7b2218f220
     Pseudo is Ultrasoft, Zval =  1.0
     Generated using "atomic" code by A. Dal Corso  v.5.1
     Using radial grid of  929 points,  2 beta functions with: 
                l(1) =   0
                l(2) =   0
     Q(r) pseudized with 0 coefficients 


     atomic species   valence    mass     pseudopotential
        O              6.00    15.99940     O ( 1.00)
        Ru            16.00   101.07000     Ru( 1.00)
        H              1.00     1.00794     H ( 1.00)

      4 Sym. Ops. (no inversion) found



   Cartesian axes

     site n.     atom                  positions (alat units)
         1           O   tau(   1) = (  -0.0037130   0.4542364   0.9076686  )
         2           O   tau(   2) = (   0.4958301   0.4542364   0.9019659  )
         3           O   tau(   3) = (  -0.0029101   0.0000000   0.9739985  )
         4           O   tau(   4) = (   0.4983427   0.0000000   1.0394218  )
         5           Ru  tau(   5) = (   0.2561548   0.0000000   1.2064934  )
         6           Ru  tau(   6) = (   0.7401229   0.0000000   1.2068292  )
         7           O   tau(   7) = (   0.2471641   0.2788641   1.2039668  )
         8           O   tau(   8) = (   0.7493781   0.2784950   1.2038611  )
         9           Ru  tau(   9) = (  -0.0021851   0.4542364   1.2126455  )
        10           Ru  tau(  10) = (   0.4983876   0.4542364   1.2003028  )
        11           O   tau(  11) = (   0.2471641   0.6296087   1.2039668  )
        12           O   tau(  12) = (   0.7493781   0.6299778   1.2038611  )
        13           O   tau(  13) = (  -0.0011417   0.0000000   1.3895923  )
        14           O   tau(  14) = (   0.4977025   0.0000000   1.3924066  )
        15           O   tau(  15) = (  -0.0014921   0.4542364   1.5067713  )
        16           O   tau(  16) = (   0.4987476   0.4542364   1.4931214  )
        17           Ru  tau(  17) = (  -0.0005083   0.0000000   1.6888985  )
        18           Ru  tau(  18) = (   0.4965521   0.0000000   1.6888985  )
        19           O   tau(  19) = (   0.2476834   0.1774408   1.6888985  )
        20           O   tau(  20) = (   0.7488218   0.1741648   1.6888985  )
        21           Ru  tau(  21) = (   0.2528314   0.4542364   1.6888985  )
        22           Ru  tau(  22) = (   0.7431848   0.4542364   1.6888985  )
        23           O   tau(  23) = (   0.2476834   0.7310329   1.6888985  )
        24           O   tau(  24) = (   0.7488218   0.7343089   1.6888985  )
        25           O   tau(  25) = (  -0.0014921   0.4542364   1.8710224  )
        26           O   tau(  26) = (   0.4987476   0.4542364   1.8846723  )
        27           O   tau(  27) = (  -0.0011417   0.0000000   1.9882014  )
        28           O   tau(  28) = (   0.4977025   0.0000000   1.9853871  )
        29           Ru  tau(  29) = (   0.2561548   0.0000000   2.1713003  )
        30           Ru  tau(  30) = (   0.7401229   0.0000000   2.1709645  )
        31           O   tau(  31) = (   0.2471641   0.2788641   2.1738269  )
        32           O   tau(  32) = (   0.7493781   0.2784950   2.1739326  )
        33           Ru  tau(  33) = (  -0.0021851   0.4542364   2.1651482  )
        34           Ru  tau(  34) = (   0.4983876   0.4542364   2.1774909  )
        35           O   tau(  35) = (   0.2471641   0.6296087   2.1738269  )
        36           O   tau(  36) = (   0.7493781   0.6299778   2.1739326  )
        37           O   tau(  37) = (  -0.0029101   0.0000000   2.4037985  )
        38           O   tau(  38) = (   0.4983427   0.0000000   2.3383753  )
        39           O   tau(  39) = (  -0.0037130   0.4542364   2.4701251  )
        40           O   tau(  40) = (   0.4958301   0.4542364   2.4758278  )
        41           H   tau(  41) = (   0.1429733   0.4542364   0.8632658  )
        42           H   tau(  42) = (   0.1429733   0.4542364   2.5145245  )
        43           H   tau(  43) = (   0.6417831   0.4542364   0.8550975  )
        44           H   tau(  44) = (   0.6417831   0.4542364   2.5226928  )
        45           H   tau(  45) = (  -0.0044760   0.1096260   0.8845559  )
        46           H   tau(  46) = (  -0.0044760   0.1096260   2.4932345  )
        47           H   tau(  47) = (  -0.0044760   0.7988468   0.8845559  )
        48           H   tau(  48) = (  -0.0044760   0.7988468   2.4932345  )

     number of k points=     1  Marzari-Vanderbilt smearing, width (Ry)=  0.0300
                       cart. coord. in units 2pi/alat
        k(    1) = (   0.2500000   0.2751871   0.0000000), wk =   2.0000000

     Dense  grid:  1099789 G-vectors     FFT dimensions: (  90,  81, 300)

     Smooth grid:   278381 G-vectors     FFT dimensions: (  60,  54, 192)

     Estimated max dynamical RAM per process >     168.80 MB

     Estimated total dynamical RAM >       3.30 GB

     Check: negative core charge=   -0.000001

     Initial potential from superposition of free atoms

     starting charge     367.9933, renormalised to     368.0000

     add environment contribution to local potential
     Polarization accuracy = 7.7E-12, # of iterations =  23

     negative rho (up, down):  2.659E-05 0.000E+00
     Starting wfcs are  240 randomized atomic wfcs
     Checking if some PAW data can be deallocated... 

     total cpu time spent up to now is      941.1 secs

     per-process dynamical memory:   138.7 Mb

     Self-consistent Calculation

     iteration #  1     ecut=    50.00 Ry     beta= 0.70
     Davidson diagonalization with overlap
     ethr =  1.00E-02,  avg # of iterations =  3.0

     total cpu time spent up to now is     1212.8 secs

     total energy              =   -3435.34040541 Ry
     estimated scf accuracy    <       9.21359241 Ry
     electrostatic embedding   =      -0.00179119 Ry
     cavitation energy         =       0.01928922 Ry
     PV energy                 =      -0.08597980 Ry
     correction to one-el term =     223.71610823 Ry

     iteration #  2     ecut=    50.00 Ry     beta= 0.70
     Davidson diagonalization with overlap
     ethr =  2.50E-03,  avg # of iterations =  2.0

     total cpu time spent up to now is     1526.7 secs

     total energy              =   -3437.33793410 Ry
     estimated scf accuracy    <       1.89348382 Ry
     electrostatic embedding   =      -0.00289397 Ry
     cavitation energy         =       0.01921624 Ry
     PV energy                 =      -0.08691948 Ry
     correction to one-el term =     223.71947936 Ry

     iteration #  3     ecut=    50.00 Ry     beta= 0.70
     Davidson diagonalization with overlap
     ethr =  5.15E-04,  avg # of iterations =  2.0

     total cpu time spent up to now is     1816.1 secs

     total energy              =   -3437.50359929 Ry
     estimated scf accuracy    <       0.39693855 Ry
     electrostatic embedding   =      -0.00332343 Ry
     cavitation energy         =       0.01924937 Ry
     PV energy                 =      -0.08702590 Ry
     correction to one-el term =     223.72059192 Ry

     iteration #  4     ecut=    50.00 Ry     beta= 0.70
     Davidson diagonalization with overlap
     ethr =  1.08E-04,  avg # of iterations =  5.0

     total cpu time spent up to now is     2078.1 secs

     total energy              =   -3437.49858380 Ry
     estimated scf accuracy    <       0.26082289 Ry
     electrostatic embedding   =      -0.00356144 Ry
     cavitation energy         =       0.01944108 Ry
     PV energy                 =      -0.08659886 Ry
     correction to one-el term =     223.72091402 Ry

     iteration #  5     ecut=    50.00 Ry     beta= 0.70
     Davidson diagonalization with overlap
     ethr =  7.09E-05,  avg # of iterations =  2.0

     total cpu time spent up to now is     2340.9 secs

     total energy              =   -3437.49736409 Ry
     estimated scf accuracy    <       0.22138152 Ry
     electrostatic embedding   =      -0.00378408 Ry
     cavitation energy         =       0.01991377 Ry
     PV energy                 =      -0.08561104 Ry
     correction to one-el term =     223.72098685 Ry

     iteration #  6     ecut=    50.00 Ry     beta= 0.70
     Davidson diagonalization with overlap
     ethr =  6.02E-05,  avg # of iterations =  2.0

     add environment contribution to local potential
     Polarization accuracy = 4.1E-12, # of iterations =  35

     total cpu time spent up to now is     2589.0 secs

     total energy              =   -3437.48853301 Ry
     estimated scf accuracy    <       0.09383691 Ry
     electrostatic embedding   =      -0.00381235 Ry
     cavitation energy         =       0.02020277 Ry
     PV energy                 =      -0.08489205 Ry
     correction to one-el term =     223.72077070 Ry

     iteration #  7     ecut=    50.00 Ry     beta= 0.70
     Davidson diagonalization with overlap
     ethr =  2.55E-05,  avg # of iterations =  9.0

     total cpu time spent up to now is     2822.7 secs

     total energy              =   -3437.53200584 Ry
     estimated scf accuracy    <       0.10528286 Ry
     electrostatic embedding   =      -0.05914771 Ry
     cavitation energy         =       0.02077233 Ry
     PV energy                 =      -0.08326238 Ry
     correction to one-el term =     182.74852046 Ry

     iteration #  8     ecut=    50.00 Ry     beta= 0.70
     Davidson diagonalization with overlap
     ethr =  2.55E-05,  avg # of iterations =  1.0

     add environment contribution to local potential
     Polarization accuracy = 4.5E-12, # of iterations =  44

     total cpu time spent up to now is     3108.3 secs

     total energy              =   -3437.52128993 Ry
     estimated scf accuracy    <       0.04569304 Ry
     electrostatic embedding   =      -0.06029181 Ry
     cavitation energy         =       0.02093142 Ry
     PV energy                 =      -0.08276749 Ry
     correction to one-el term =     182.75281460 Ry

     iteration #  9     ecut=    50.00 Ry     beta= 0.70
     Davidson diagonalization with overlap
     ethr =  1.24E-05,  avg # of iterations =  9.0

     negative rho (up, down):  5.414E-04 0.000E+00

     add environment contribution to local potential
     Polarization accuracy = 6.8E-12, # of iterations =  49

     total cpu time spent up to now is     3388.1 secs

     total energy              =   -3437.52917379 Ry
     estimated scf accuracy    <       0.02052240 Ry
     electrostatic embedding   =      -0.08093867 Ry
     cavitation energy         =       0.02135480 Ry
     PV energy                 =      -0.08167714 Ry
     correction to one-el term =     177.28326045 Ry

     iteration # 10     ecut=    50.00 Ry     beta= 0.70
     Davidson diagonalization with overlap
     ethr =  5.58E-06,  avg # of iterations =  3.0

     negative rho (up, down):  3.697E-04 0.000E+00

     add environment contribution to local potential
     Polarization accuracy = 7.1E-12, # of iterations =  47

     total cpu time spent up to now is     3692.9 secs

     total energy              =   -3437.53301253 Ry
     estimated scf accuracy    <       0.02039162 Ry
     electrostatic embedding   =      -0.09374889 Ry
     cavitation energy         =       0.02136793 Ry
     PV energy                 =      -0.08133516 Ry
     correction to one-el term =     176.39194037 Ry

     iteration # 11     ecut=    50.00 Ry     beta= 0.70
     Davidson diagonalization with overlap
     ethr =  5.54E-06,  avg # of iterations = 16.0

     negative rho (up, down):  1.900E-04 0.000E+00

     add environment contribution to local potential
     Polarization accuracy = 6.6E-12, # of iterations =  45

     total cpu time spent up to now is     3957.1 secs

     total energy              =   -3437.53290847 Ry
     estimated scf accuracy    <       0.01149588 Ry
     electrostatic embedding   =      -0.09374990 Ry
     cavitation energy         =       0.02113836 Ry
     PV energy                 =      -0.08152181 Ry
     correction to one-el term =     177.61623565 Ry

     iteration # 12     ecut=    50.00 Ry     beta= 0.70
     Davidson diagonalization with overlap
     ethr =  3.12E-06,  avg # of iterations =  5.0

     negative rho (up, down):  1.482E-06 0.000E+00

     add environment contribution to local potential
     Polarization accuracy = 6.8E-12, # of iterations =  43

     total cpu time spent up to now is     4269.2 secs

     total energy              =   -3437.53426658 Ry
     estimated scf accuracy    <       0.00474491 Ry
     electrostatic embedding   =      -0.09220332 Ry
     cavitation energy         =       0.02090748 Ry
     PV energy                 =      -0.08175017 Ry
     correction to one-el term =     179.14707825 Ry

     iteration # 13     ecut=    50.00 Ry     beta= 0.70
     Davidson diagonalization with overlap
     ethr =  1.29E-06,  avg # of iterations =  5.0

     negative rho (up, down):  3.321E-08 0.000E+00

     add environment contribution to local potential
     Polarization accuracy = 8.5E-12, # of iterations =  42

     total cpu time spent up to now is     4547.1 secs

     total energy              =   -3437.53531903 Ry
     estimated scf accuracy    <       0.00411413 Ry
     electrostatic embedding   =      -0.09028784 Ry
     cavitation energy         =       0.02075687 Ry
     PV energy                 =      -0.08193623 Ry
     correction to one-el term =     180.62940064 Ry

     iteration # 14     ecut=    50.00 Ry     beta= 0.70
     Davidson diagonalization with overlap
     ethr =  1.12E-06,  avg # of iterations =  4.0

     negative rho (up, down):  5.660E-06 0.000E+00

     add environment contribution to local potential
     Polarization accuracy = 5.2E-12, # of iterations =  42

     total cpu time spent up to now is     4795.0 secs

     total energy              =   -3437.53618476 Ry
     estimated scf accuracy    <       0.00251353 Ry
     electrostatic embedding   =      -0.08701244 Ry
     cavitation energy         =       0.02063374 Ry
     PV energy                 =      -0.08211567 Ry
     correction to one-el term =     182.21628230 Ry

     iteration # 15     ecut=    50.00 Ry     beta= 0.70
     Davidson diagonalization with overlap
     ethr =  6.83E-07,  avg # of iterations =  9.0

     negative rho (up, down):  6.932E-04 0.000E+00

     add environment contribution to local potential
     Polarization accuracy = 3.8E-12, # of iterations =  43

     total cpu time spent up to now is     5087.6 secs

     total energy              =   -3437.53672695 Ry
     estimated scf accuracy    <       0.00105812 Ry
     electrostatic embedding   =      -0.08335745 Ry
     cavitation energy         =       0.02056509 Ry
     PV energy                 =      -0.08223513 Ry
     correction to one-el term =     183.60604946 Ry

     iteration # 16     ecut=    50.00 Ry     beta= 0.70
     Davidson diagonalization with overlap
     c_bands:  1 eigenvalues not converged
     ethr =  2.88E-07,  avg # of iterations = 20.0

     negative rho (up, down):  3.026E-03 0.000E+00

     add environment contribution to local potential
     Polarization accuracy = 4.7E-12, # of iterations =  42

     total cpu time spent up to now is     5359.9 secs

     total energy              =   -3437.53698527 Ry
     estimated scf accuracy    <       0.00054557 Ry
     electrostatic embedding   =      -0.08003523 Ry
     cavitation energy         =       0.02053060 Ry
     PV energy                 =      -0.08228593 Ry
     correction to one-el term =     184.42124814 Ry

     iteration # 17     ecut=    50.00 Ry     beta= 0.70
     Davidson diagonalization with overlap
     ethr =  1.48E-07,  avg # of iterations = 13.0

     negative rho (up, down):  1.670E-03 0.000E+00

     add environment contribution to local potential
     Polarization accuracy = 4.1E-12, # of iterations =  42

     total cpu time spent up to now is     5591.9 secs

     total energy              =   -3437.53705552 Ry
     estimated scf accuracy    <       0.00016184 Ry
     electrostatic embedding   =      -0.07866406 Ry
     cavitation energy         =       0.02053529 Ry
     PV energy                 =      -0.08227706 Ry
     correction to one-el term =     184.69699340 Ry

     iteration # 18     ecut=    50.00 Ry     beta= 0.70
     Davidson diagonalization with overlap
     ethr =  4.40E-08,  avg # of iterations =  2.0

     negative rho (up, down):  1.003E-03 0.000E+00

     add environment contribution to local potential
     Polarization accuracy = 5.6E-12, # of iterations =  42

     total cpu time spent up to now is     5907.7 secs

     total energy              =   -3437.53710485 Ry
     estimated scf accuracy    <       0.00004500 Ry
     electrostatic embedding   =      -0.07752119 Ry
     cavitation energy         =       0.02057040 Ry
     PV energy                 =      -0.08222333 Ry
     correction to one-el term =     184.70421253 Ry

     iteration # 19     ecut=    50.00 Ry     beta= 0.70
     Davidson diagonalization with overlap
     ethr =  1.22E-08,  avg # of iterations =  6.0

     negative rho (up, down):  1.059E-03 0.000E+00

     add environment contribution to local potential
     Polarization accuracy = 4.7E-12, # of iterations =  42

     total cpu time spent up to now is     6162.1 secs

     total energy              =   -3437.53712994 Ry
     estimated scf accuracy    <       0.00004798 Ry
     electrostatic embedding   =      -0.07662530 Ry
     cavitation energy         =       0.02057956 Ry
     PV energy                 =      -0.08220565 Ry
     correction to one-el term =     184.77355052 Ry

     iteration # 20     ecut=    50.00 Ry     beta= 0.70
     Davidson diagonalization with overlap
     ethr =  1.22E-08,  avg # of iterations =  2.0

     negative rho (up, down):  3.020E-04 0.000E+00

     add environment contribution to local potential
     Polarization accuracy = 5.2E-12, # of iterations =  42

     total cpu time spent up to now is     6443.9 secs

     total energy              =   -3437.53713503 Ry
     estimated scf accuracy    <       0.00001258 Ry
     electrostatic embedding   =      -0.07583451 Ry
     cavitation energy         =       0.02058382 Ry
     PV energy                 =      -0.08219161 Ry
     correction to one-el term =     184.86967923 Ry

     iteration # 21     ecut=    50.00 Ry     beta= 0.70
     Davidson diagonalization with overlap
     ethr =  3.42E-09,  avg # of iterations =  3.0

     negative rho (up, down):  1.397E-04 0.000E+00

     add environment contribution to local potential
     Polarization accuracy = 7.6E-12, # of iterations =  41

     total cpu time spent up to now is     6709.2 secs

     total energy              =   -3437.53713463 Ry
     estimated scf accuracy    <       0.00001511 Ry
     electrostatic embedding   =      -0.07572704 Ry
     cavitation energy         =       0.02058283 Ry
     PV energy                 =      -0.08218608 Ry
     correction to one-el term =     184.84068789 Ry

     iteration # 22     ecut=    50.00 Ry     beta= 0.70
     Davidson diagonalization with overlap
     ethr =  3.42E-09,  avg # of iterations =  2.0

     negative rho (up, down):  9.330E-05 0.000E+00

     add environment contribution to local potential
     Polarization accuracy = 8.6E-12, # of iterations =  41

     total cpu time spent up to now is     7019.7 secs

     total energy              =   -3437.53713660 Ry
     estimated scf accuracy    <       0.00000116 Ry
     electrostatic embedding   =      -0.07527804 Ry
     cavitation energy         =       0.02058260 Ry
     PV energy                 =      -0.08217681 Ry
     correction to one-el term =     184.87472536 Ry

     iteration # 23     ecut=    50.00 Ry     beta= 0.70
     Davidson diagonalization with overlap
     ethr =  3.15E-10,  avg # of iterations =  2.0

     negative rho (up, down):  9.096E-05 0.000E+00

     add environment contribution to local potential
     Polarization accuracy = 4.8E-12, # of iterations =  42

     total cpu time spent up to now is     7274.5 secs

     total energy              =   -3437.53713693 Ry
     estimated scf accuracy    <       0.00000036 Ry
     electrostatic embedding   =      -0.07530809 Ry
     cavitation energy         =       0.02058268 Ry
     PV energy                 =      -0.08217553 Ry
     correction to one-el term =     184.85520350 Ry

     iteration # 24     ecut=    50.00 Ry     beta= 0.70
     Davidson diagonalization with overlap
     ethr =  9.66E-11,  avg # of iterations =  2.0

     negative rho (up, down):  1.022E-04 0.000E+00

     add environment contribution to local potential
     Polarization accuracy = 4.8E-12, # of iterations =  42

     total cpu time spent up to now is     7524.9 secs

     total energy              =   -3437.53713721 Ry
     estimated scf accuracy    <       0.00000015 Ry
     electrostatic embedding   =      -0.07531616 Ry
     cavitation energy         =       0.02058332 Ry
     PV energy                 =      -0.08217454 Ry
     correction to one-el term =     184.84469154 Ry

     iteration # 25     ecut=    50.00 Ry     beta= 0.70
     Davidson diagonalization with overlap
     ethr =  4.02E-11,  avg # of iterations =  2.0

     negative rho (up, down):  1.245E-04 0.000E+00

     add environment contribution to local potential
     Polarization accuracy = 2.7E-12, # of iterations =  42

     total cpu time spent up to now is     7848.3 secs

     total energy              =   -3437.53713749 Ry
     estimated scf accuracy    <       0.00000011 Ry
     electrostatic embedding   =      -0.07534467 Ry
     cavitation energy         =       0.02058366 Ry
     PV energy                 =      -0.08217490 Ry
     correction to one-el term =     184.83986160 Ry

     iteration # 26     ecut=    50.00 Ry     beta= 0.70
     Davidson diagonalization with overlap
     ethr =  2.86E-11,  avg # of iterations =  2.0

     negative rho (up, down):  1.240E-04 0.000E+00

     add environment contribution to local potential
     Polarization accuracy = 8.5E-12, # of iterations =  40

     total cpu time spent up to now is     8164.2 secs

     total energy              =   -3437.53713783 Ry
     estimated scf accuracy    <       0.00000007 Ry
     electrostatic embedding   =      -0.07537850 Ry
     cavitation energy         =       0.02058403 Ry
     PV energy                 =      -0.08217552 Ry
     correction to one-el term =     184.83573010 Ry

     iteration # 27     ecut=    50.00 Ry     beta= 0.70
     Davidson diagonalization with overlap
     ethr =  1.92E-11,  avg # of iterations =  1.0

     negative rho (up, down):  1.248E-04 0.000E+00

     add environment contribution to local potential
     Polarization accuracy = 9.8E-12, # of iterations =  41

     total cpu time spent up to now is     8457.7 secs

     total energy              =   -3437.53713805 Ry
     estimated scf accuracy    <       0.00000007 Ry
     electrostatic embedding   =      -0.07537543 Ry
     cavitation energy         =       0.02058429 Ry
     PV energy                 =      -0.08217544 Ry
     correction to one-el term =     184.83560961 Ry

     iteration # 28     ecut=    50.00 Ry     beta= 0.70
     Davidson diagonalization with overlap
     ethr =  1.87E-11,  avg # of iterations =  2.0

     negative rho (up, down):  1.208E-04 0.000E+00

     add environment contribution to local potential
     Polarization accuracy = 9.9E-12, # of iterations =  41

     total cpu time spent up to now is     8724.0 secs

     total energy              =   -3437.53713827 Ry
     estimated scf accuracy    <       0.00000006 Ry
     electrostatic embedding   =      -0.07538641 Ry
     cavitation energy         =       0.02058440 Ry
     PV energy                 =      -0.08217560 Ry
     correction to one-el term =     184.83412571 Ry

     iteration # 29     ecut=    50.00 Ry     beta= 0.70
     Davidson diagonalization with overlap
     ethr =  1.75E-11,  avg # of iterations =  2.0

     negative rho (up, down):  1.117E-04 0.000E+00

     add environment contribution to local potential
     Polarization accuracy = 5.3E-12, # of iterations =  42

     total cpu time spent up to now is     9022.6 secs

     total energy              =   -3437.53713982 Ry
     estimated scf accuracy    <       0.00000005 Ry
     electrostatic embedding   =      -0.07539287 Ry
     cavitation energy         =       0.02058497 Ry
     PV energy                 =      -0.08217571 Ry
     correction to one-el term =     184.83315331 Ry

     iteration # 30     ecut=    50.00 Ry     beta= 0.70
     Davidson diagonalization with overlap
     ethr =  1.46E-11,  avg # of iterations =  2.0

     negative rho (up, down):  1.093E-04 0.000E+00

     add environment contribution to local potential
     Polarization accuracy = 3.4E-12, # of iterations =  42

     total cpu time spent up to now is     9336.3 secs

     total energy              =   -3437.53714258 Ry
     estimated scf accuracy    <       0.00000005 Ry
     electrostatic embedding   =      -0.07539524 Ry
     cavitation energy         =       0.02058523 Ry
     PV energy                 =      -0.08217553 Ry
     correction to one-el term =     184.83166731 Ry

     iteration # 31     ecut=    50.00 Ry     beta= 0.70
     Davidson diagonalization with overlap
     ethr =  1.33E-11,  avg # of iterations =  2.0

     negative rho (up, down):  1.069E-04 0.000E+00

     add environment contribution to local potential
     Polarization accuracy = 4.9E-12, # of iterations =  42

     total cpu time spent up to now is     9634.8 secs

     total energy              =   -3437.53714543 Ry
     estimated scf accuracy    <       0.00000003 Ry
     electrostatic embedding   =      -0.07539961 Ry
     cavitation energy         =       0.02058545 Ry
     PV energy                 =      -0.08217553 Ry
     correction to one-el term =     184.83089928 Ry

     iteration # 32     ecut=    50.00 Ry     beta= 0.70
     Davidson diagonalization with overlap
     ethr =  7.91E-12,  avg # of iterations =  5.0

     negative rho (up, down):  1.107E-04 0.000E+00

     add environment contribution to local potential
     Polarization accuracy = 3.4E-12, # of iterations =  42

     total cpu time spent up to now is     9929.5 secs

     total energy              =   -3437.53715414 Ry
     estimated scf accuracy    <       0.00000002 Ry
     electrostatic embedding   =      -0.07539367 Ry
     cavitation energy         =       0.02058515 Ry
     PV energy                 =      -0.08217528 Ry
     correction to one-el term =     184.83110680 Ry

     iteration # 33     ecut=    50.00 Ry     beta= 0.70
     Davidson diagonalization with overlap
     ethr =  5.18E-12,  avg # of iterations =  2.0

     negative rho (up, down):  1.163E-04 0.000E+00

     add environment contribution to local potential
     Polarization accuracy = 4.2E-12, # of iterations =  42

     total cpu time spent up to now is    10250.7 secs

     total energy              =   -3437.53715768 Ry
     estimated scf accuracy    <          7.6E-09 Ry
     electrostatic embedding   =      -0.07538881 Ry
     cavitation energy         =       0.02058482 Ry
     PV energy                 =      -0.08217523 Ry
     correction to one-el term =     184.83173894 Ry

     iteration # 34     ecut=    50.00 Ry     beta= 0.70
     Davidson diagonalization with overlap
     ethr =  2.07E-12,  avg # of iterations =  3.0

     negative rho (up, down):  1.197E-04 0.000E+00

     add environment contribution to local potential
     Polarization accuracy = 3.8E-12, # of iterations =  42

     total cpu time spent up to now is    10452.3 secs

     total energy              =   -3437.53716033 Ry
     estimated scf accuracy    <          2.6E-09 Ry
     electrostatic embedding   =      -0.07538538 Ry
     cavitation energy         =       0.02058461 Ry
     PV energy                 =      -0.08217538 Ry
     correction to one-el term =     184.83303849 Ry

     iteration # 35     ecut=    50.00 Ry     beta= 0.70
     Davidson diagonalization with overlap
     ethr =  7.09E-13,  avg # of iterations =  5.0

     negative rho (up, down):  1.215E-04 0.000E+00

     add environment contribution to local potential
     Polarization accuracy = 2.6E-12, # of iterations =  42

     total cpu time spent up to now is    10698.1 secs

     total energy              =   -3437.53716115 Ry
     estimated scf accuracy    <          1.0E-09 Ry
     electrostatic embedding   =      -0.07538546 Ry
     cavitation energy         =       0.02058455 Ry
     PV energy                 =      -0.08217549 Ry
     correction to one-el term =     184.83355029 Ry

     iteration # 36     ecut=    50.00 Ry     beta= 0.70
     Davidson diagonalization with overlap
     ethr =  2.78E-13,  avg # of iterations =  2.0

     negative rho (up, down):  1.213E-04 0.000E+00

     the potential shift due to the Gaussian-smeared nuclei is    -1.3500 ev

     total cpu time spent up to now is    10979.4 secs

     End of self-consistent calculation

          k = 0.2500 0.2752 0.0000 ( 34780 PWs)   bands (ev):

   -76.7688 -76.7639 -76.7564 -76.7515 -76.5164 -76.5096 -76.4785 -76.4657
   -76.4572 -76.4446 -76.4256 -76.3772 -47.1565 -47.1503 -47.1440 -47.1378
   -47.0022 -46.9377 -46.7573 -46.7504 -46.7447 -46.7376 -46.6698 -46.6584
   -46.6576 -46.6458 -46.6382 -46.6217 -46.5963 -46.5822 -46.5802 -46.5692
   -46.4577 -46.4541 -46.4450 -46.4035 -46.3701 -46.3575 -46.3442 -46.3415
   -46.3244 -46.3189 -46.3155 -46.3029 -46.3028 -46.2900 -46.2235 -46.2041
   -26.4273 -26.4091 -23.1858 -23.0518 -22.9209 -22.7120 -22.6589 -22.5716
   -22.4650 -22.2203 -22.2077 -22.0647 -22.0439 -22.0046 -21.9198 -21.8949
   -21.8650 -21.8452 -21.7992 -21.7630 -21.6716 -21.6528 -21.6067 -21.5912
   -21.4182 -21.3380 -21.0046 -20.9177 -13.6842 -13.6663 -11.6513 -11.5544
   -11.2788 -11.2652 -11.2239 -10.7869 -10.7574 -10.6864 -10.5713 -10.4866
   -10.4291 -10.4247 -10.3203 -10.2571 -10.2100 -10.1636 -10.1495 -10.0185
   -10.0126  -9.8734  -9.8040  -9.7180  -9.7127  -9.5546  -9.4078  -9.3735
    -9.3203  -9.2566  -9.2063  -9.0568  -9.0380  -8.9670  -8.8758  -8.8675
    -8.7394  -8.5354  -8.5311  -8.4788  -8.4000  -8.2965  -8.2881  -8.1807
    -8.1293  -8.0335  -7.9515  -7.9245  -7.7717  -7.7104  -7.5280  -7.4757
    -7.4469  -7.3797  -7.3286  -7.2891  -7.2534  -7.2326  -7.1601  -7.1194
    -7.0239  -6.8469  -6.8446  -6.7977  -6.7028  -6.6522  -6.5819  -6.4850
    -6.3468  -6.2526  -6.1368  -6.1338  -6.0589  -6.0203  -5.9436  -5.7862
    -5.7725  -5.6942  -5.6505  -5.5341  -5.4724  -5.4480  -5.3770  -5.3524
    -4.3065  -4.1806  -4.0729  -4.0350  -4.0065  -3.9714  -3.9392  -3.8713
    -3.8680  -3.8311  -3.8155  -3.8019  -3.7554  -3.7193  -3.6853  -3.5948
    -3.5427  -3.4995  -3.4569  -3.4536  -3.3482  -3.2426  -3.2038  -3.1669
    -3.0173  -2.9391  -2.7390  -2.7299  -2.4164  -2.3612  -2.2880  -2.1500
    -2.0849  -2.0569  -1.8914  -1.7554  -1.7147  -1.2933  -1.1165  -0.8992
    -0.7972  -0.7360  -0.5065  -0.3129  -0.2033   0.1743   0.4830   0.5775
     0.7025   0.8083   0.8396   0.9084   1.0630   1.1482   1.2574   1.3762
     1.3918   1.6099   1.8674   1.9153   1.9865

     the Fermi energy is    -3.0922 ev

!    total energy              =   -3437.53716153 Ry
     estimated scf accuracy    <          2.5E-10 Ry
     smearing contrib. (-TS)   =       0.06821383 Ry
     internal energy E=F+TS    =   -3437.60537537 Ry

     The total energy is F=E-TS. E is the sum of the following terms:
     one-electron contribution =  -25435.49655132 Ry
     hartree contribution      =   12711.94948951 Ry
     xc contribution           =    -450.11151861 Ry
     ewald contribution        =    9817.84082185 Ry
     one-center paw contrib.   =    -266.48468059 Ry
     electrostatic embedding   =      -0.07538483 Ry
     cavitation energy         =       0.02058452 Ry
     PV energy                 =      -0.08217556 Ry
     correction to one-el term =     184.83403966 Ry

     WARNING: you are using the parabolic pbc correction;
              the potential shift above must be added to 
              band and Fermi energies.

     convergence has been achieved in  36 iterations

     negative rho (up, down):  1.213E-04 0.000E+00

     Forces acting on atoms (cartesian axes, Ry/au):

     atom    1 type  1   force =     0.04014193    0.00000000   -0.02170701
     atom    2 type  1   force =     0.03817335    0.00000000   -0.01487704
     atom    3 type  1   force =     0.00202249    0.00000000    0.12800813
     atom    4 type  1   force =     0.00003405    0.00000000   -0.01576710
     atom    5 type  2   force =     0.05241528    0.00000000    0.01244800
     atom    6 type  2   force =    -0.05223630    0.00000000    0.01271174
     atom    7 type  1   force =    -0.00580321    0.06360589   -0.00089209
     atom    8 type  1   force =     0.00590773    0.06676361   -0.00107229
     atom    9 type  2   force =     0.00331634    0.00000000    0.00435728
     atom   10 type  2   force =     0.00008631    0.00000000   -0.00304091
     atom   11 type  1   force =    -0.00580321   -0.06360589   -0.00089209
     atom   12 type  1   force =     0.00590773   -0.06676361   -0.00107229
     atom   13 type  1   force =     0.00007621    0.00000000   -0.00759116
     atom   14 type  1   force =    -0.00020505    0.00000000   -0.00545459
     atom   15 type  1   force =    -0.00212144    0.00000000   -0.00270234
     atom   16 type  1   force =    -0.00150744    0.00000000    0.02702717
     atom   17 type  2   force =    -0.01112554    0.00000000    0.00000000
     atom   18 type  2   force =     0.01207105    0.00000000    0.00000000
     atom   19 type  1   force =    -0.00044829   -0.08221823    0.00000000
     atom   20 type  1   force =     0.00008932   -0.05092797    0.00000000
     atom   21 type  2   force =    -0.01099943    0.00000000    0.00000000
     atom   22 type  2   force =     0.01427673    0.00000000    0.00000000
     atom   23 type  1   force =    -0.00044829    0.08221823    0.00000000
     atom   24 type  1   force =     0.00008932    0.05092797    0.00000000
     atom   25 type  1   force =    -0.00212144    0.00000000    0.00270234
     atom   26 type  1   force =    -0.00150744    0.00000000   -0.02702717
     atom   27 type  1   force =     0.00007621    0.00000000    0.00759116
     atom   28 type  1   force =    -0.00020505    0.00000000    0.00545459
     atom   29 type  2   force =     0.05241528    0.00000000   -0.01244800
     atom   30 type  2   force =    -0.05223630    0.00000000   -0.01271174
     atom   31 type  1   force =    -0.00580321    0.06360589    0.00089209
     atom   32 type  1   force =     0.00590773    0.06676361    0.00107229
     atom   33 type  2   force =     0.00331634    0.00000000   -0.00435728
     atom   34 type  2   force =     0.00008631    0.00000000    0.00304091
     atom   35 type  1   force =    -0.00580321   -0.06360589    0.00089209
     atom   36 type  1   force =     0.00590773   -0.06676361    0.00107229
     atom   37 type  1   force =     0.00202249    0.00000000   -0.12800813
     atom   38 type  1   force =     0.00003405    0.00000000    0.01576710
     atom   39 type  1   force =     0.04014193    0.00000000    0.02170701
     atom   40 type  1   force =     0.03817335    0.00000000    0.01487704
     atom   41 type  3   force =    -0.03905382    0.00000000    0.00923264
     atom   42 type  3   force =    -0.03905382    0.00000000   -0.00923264
     atom   43 type  3   force =    -0.03962883    0.00000000    0.01024306
     atom   44 type  3   force =    -0.03962883    0.00000000   -0.01024306
     atom   45 type  3   force =    -0.00173728    0.11799572   -0.06324166
     atom   46 type  3   force =    -0.00173728    0.11799572    0.06324166
     atom   47 type  3   force =    -0.00173728   -0.11799572   -0.06324166
     atom   48 type  3   force =    -0.00173728   -0.11799572    0.06324166
     The non-local contrib.  to forces
     atom    1 type  1   force =     1.71560455    0.00000000    0.31787037
     atom    2 type  1   force =     1.73465039    0.00000000    0.34783559
     atom    3 type  1   force =    -0.03847149    0.00000000   -1.57630726
     atom    4 type  1   force =     0.00377344    0.00000000    1.12159688
     atom    5 type  2   force =    -0.04437255    0.00000000   -0.02009787
     atom    6 type  2   force =     0.04239603    0.00000000   -0.01552861
     atom    7 type  1   force =    -0.01433597   -0.09646252    0.00302779
     atom    8 type  1   force =     0.00309363   -0.08888194    0.00584716
     atom    9 type  2   force =    -0.00151634    0.00000000    0.03477224
     atom   10 type  2   force =    -0.00027086    0.00000000    0.03543523
     atom   11 type  1   force =    -0.01433597    0.09646252    0.00302779
     atom   12 type  1   force =     0.00309363    0.08888194    0.00584716
     atom   13 type  1   force =     0.00886431    0.00000000    0.07447325
     atom   14 type  1   force =    -0.01020554    0.00000000   -0.16595982
     atom   15 type  1   force =    -0.00354844    0.00000000   -0.09876244
     atom   16 type  1   force =     0.00718637    0.00000000    0.03562214
     atom   17 type  2   force =     0.00506091    0.00000000    0.00000000
     atom   18 type  2   force =    -0.00431590    0.00000000    0.00000000
     atom   19 type  1   force =     0.03475950    0.04167125    0.00000000
     atom   20 type  1   force =    -0.02855452    0.08426782    0.00000000
     atom   21 type  2   force =     0.02545788    0.00000000    0.00000000
     atom   22 type  2   force =    -0.01492269    0.00000000    0.00000000
     atom   23 type  1   force =     0.03475950   -0.04167125    0.00000000
     atom   24 type  1   force =    -0.02855452   -0.08426782    0.00000000
     atom   25 type  1   force =    -0.00354844    0.00000000    0.09876244
     atom   26 type  1   force =     0.00718637    0.00000000   -0.03562214
     atom   27 type  1   force =     0.00886431    0.00000000   -0.07447325
     atom   28 type  1   force =    -0.01020554    0.00000000    0.16595982
     atom   29 type  2   force =    -0.04437255    0.00000000    0.02009787
     atom   30 type  2   force =     0.04239603    0.00000000    0.01552861
     atom   31 type  1   force =    -0.01433597   -0.09646252   -0.00302779
     atom   32 type  1   force =     0.00309363   -0.08888194   -0.00584716
     atom   33 type  2   force =    -0.00151634    0.00000000   -0.03477224
     atom   34 type  2   force =    -0.00027086    0.00000000   -0.03543523
     atom   35 type  1   force =    -0.01433597    0.09646252   -0.00302779
     atom   36 type  1   force =     0.00309363    0.08888194   -0.00584716
     atom   37 type  1   force =    -0.03847149    0.00000000    1.57630726
     atom   38 type  1   force =     0.00377344    0.00000000   -1.12159688
     atom   39 type  1   force =     1.71560455    0.00000000   -0.31787037
     atom   40 type  1   force =     1.73465039    0.00000000   -0.34783559
     atom   41 type  3   force =    -0.09248239    0.00000000    0.02921031
     atom   42 type  3   force =    -0.09248239    0.00000000   -0.02921031
     atom   43 type  3   force =    -0.09210917    0.00000000    0.03085888
     atom   44 type  3   force =    -0.09210917    0.00000000   -0.03085888
     atom   45 type  3   force =     0.00157434   -0.10421925    0.08499978
     atom   46 type  3   force =     0.00157434   -0.10421925   -0.08499978
     atom   47 type  3   force =     0.00157434    0.10421925    0.08499978
     atom   48 type  3   force =     0.00157434    0.10421925   -0.08499978
     The ionic contribution  to forces
     atom    1 type  1   force =    -2.70453446    0.00000013  -95.01362423
     atom    2 type  1   force =    -2.71457530    0.00000012  -95.95514106
     atom    3 type  1   force =     0.12776345   -0.00000020  -88.32661327
     atom    4 type  1   force =    -0.03821665   -0.00000030  -94.59289379
     atom    5 type  2   force =    -5.18970479   -0.00000221 -171.89422761
     atom    6 type  2   force =     5.17033306   -0.00000230 -171.42586249
     atom    7 type  1   force =    -0.61852678    0.48421035  -64.50913517
     atom    8 type  1   force =     0.64078919    0.50143984  -64.50817459
     atom    9 type  2   force =    -0.06049326    0.00000310 -167.38263862
     atom   10 type  2   force =    -0.09716999    0.00000282 -172.77205107
     atom   11 type  1   force =    -0.61852678   -0.48420989  -64.50913300
     atom   12 type  1   force =     0.64078919   -0.50143936  -64.50817235
     atom   13 type  1   force =    -0.10195800   -0.00000172  -39.76240700
     atom   14 type  1   force =     0.08364830   -0.00000172  -37.22060256
     atom   15 type  1   force =    -0.10562677    0.00000955  -24.77342955
     atom   16 type  1   force =     0.00937444    0.00000872  -26.17890848
     atom   17 type  2   force =    -0.21342982    0.00001295   -0.00044267
     atom   18 type  2   force =     0.26376693    0.00001245   -0.00046617
     atom   19 type  1   force =    -0.32756832   -1.00293206   -0.00008279
     atom   20 type  1   force =     0.29777340   -0.66870387   -0.00008321
     atom   21 type  2   force =     0.16899421    0.00012315   -0.00025970
     atom   22 type  2   force =     0.04518559    0.00011937   -0.00026069
     atom   23 type  1   force =    -0.32756669    1.00277770   -0.00008280
     atom   24 type  1   force =     0.29777109    0.66855640   -0.00008321
     atom   25 type  1   force =    -0.10562989    0.00000955   24.77320417
     atom   26 type  1   force =     0.00937298    0.00000872   26.17874544
     atom   27 type  1   force =    -0.10195941   -0.00000172   39.76268265
     atom   28 type  1   force =     0.08365036   -0.00000172   37.22092087
     atom   29 type  2   force =    -5.18959911   -0.00000221  171.89450190
     atom   30 type  2   force =     5.17022904   -0.00000230  171.42613685
     atom   31 type  1   force =    -0.61852129    0.48417926   64.50920041
     atom   32 type  1   force =     0.64078649    0.50140881   64.50823939
     atom   33 type  2   force =    -0.06050117    0.00000310  167.38277182
     atom   34 type  2   force =    -0.09717617    0.00000282  172.77218452
     atom   35 type  1   force =    -0.61852129   -0.48417880   64.50919824
     atom   36 type  1   force =     0.64078649   -0.50140832   64.50823715
     atom   37 type  1   force =     0.12776878   -0.00000020   88.32653733
     atom   38 type  1   force =    -0.03821678   -0.00000030   94.59303275
     atom   39 type  1   force =    -2.70459324    0.00000013   95.01375143
     atom   40 type  1   force =    -2.71463765    0.00000012   95.95526381
     atom   41 type  3   force =     2.81047792    0.00000002  -16.15845597
     atom   42 type  3   force =     2.81054021    0.00000002   16.15845690
     atom   43 type  3   force =     2.74883811    0.00000002  -16.20532199
     atom   44 type  3   force =     2.74890568    0.00000002   16.20532892
     atom   45 type  3   force =    -0.04257105    2.67219783  -17.39723559
     atom   46 type  3   force =    -0.04257460    2.67247129   17.39731533
     atom   47 type  3   force =    -0.04257105   -2.67219786  -17.39723557
     atom   48 type  3   force =    -0.04257460   -2.67247132   17.39731530
     The local contribution  to forces
     atom    1 type  1   force =     1.03374630   -0.00000000   94.67524741
     atom    2 type  1   force =     1.01331839   -0.00000000   95.52621241
     atom    3 type  1   force =    -0.08728806    0.00000000   90.18094944
     atom    4 type  1   force =     0.03010173    0.00000000   93.38262210
     atom    5 type  2   force =     5.36572937   -0.00000000  171.93073368
     atom    6 type  2   force =    -5.34269091    0.00000000  171.46318779
     atom    7 type  1   force =     0.65081538   -0.31976803   64.50157907
     atom    8 type  1   force =    -0.66077602   -0.34124603   64.49966550
     atom    9 type  2   force =     0.06631842    0.00000000  167.38134198
     atom   10 type  2   force =     0.09321921    0.00000000  172.67207666
     atom   11 type  1   force =     0.65081538    0.31976803   64.50157907
     atom   12 type  1   force =    -0.66077602    0.34124603   64.49966550
     atom   13 type  1   force =     0.09356640    0.00000000   39.69034434
     atom   14 type  1   force =    -0.07407578   -0.00000000   37.37068766
     atom   15 type  1   force =     0.10715859   -0.00000000   24.87021562
     atom   16 type  1   force =    -0.01819863    0.00000000   26.16661366
     atom   17 type  2   force =     0.19754151    0.00000000   -0.00587031
     atom   18 type  2   force =    -0.24756847    0.00000000   -0.00581400
     atom   19 type  1   force =     0.29514794    0.87817505   -0.00247508
     atom   20 type  1   force =    -0.27185786    0.53335988   -0.00246489
     atom   21 type  2   force =    -0.19943240    0.00000000   -0.00607781
     atom   22 type  2   force =    -0.02200981   -0.00000000   -0.00606271
     atom   23 type  1   force =     0.29514640   -0.87851261   -0.00247508
     atom   24 type  1   force =    -0.27185575   -0.53370220   -0.00246489
     atom   25 type  1   force =     0.10715451    0.00000000  -24.87197329
     atom   26 type  1   force =    -0.01820040    0.00000000  -26.16834267
     atom   27 type  1   force =     0.09356712   -0.00000000  -39.69214876
     atom   28 type  1   force =    -0.07407477    0.00000000  -37.37242874
     atom   29 type  2   force =     5.36577578   -0.00000000 -171.93682840
     atom   30 type  2   force =    -5.34273551    0.00000000 -171.46928581
     atom   31 type  1   force =     0.65082467   -0.31976129  -64.50404423
     atom   32 type  1   force =    -0.66078616   -0.34123970  -64.50213314
     atom   33 type  2   force =     0.06632006    0.00000000 -167.38714907
     atom   34 type  2   force =     0.09322154   -0.00000000 -172.67788308
     atom   35 type  1   force =     0.65082467    0.31976129  -64.50404423
     atom   36 type  1   force =    -0.66078616    0.34123970  -64.50213314
     atom   37 type  1   force =    -0.08728792   -0.00000000  -90.18463328
     atom   38 type  1   force =     0.03010191   -0.00000000  -93.38648302
     atom   39 type  1   force =     1.03376200    0.00000000  -94.67683694
     atom   40 type  1   force =     1.01333405    0.00000000  -95.52775538
     atom   41 type  3   force =    -2.74835521    0.00000000   16.14058732
     atom   42 type  3   force =    -2.74835521    0.00000000  -16.14058732
     atom   43 type  3   force =    -2.71115539    0.00000000   16.18284130
     atom   44 type  3   force =    -2.71115539    0.00000000  -16.18284130
     atom   45 type  3   force =     0.03838931   -2.43882403   17.29303801
     atom   46 type  3   force =     0.03838931   -2.43882403  -17.29303801
     atom   47 type  3   force =     0.03838931    2.43882403   17.29303801
     atom   48 type  3   force =     0.03838931    2.43882403  -17.29303801
     The core correction contribution to forces
     atom    1 type  1   force =    -0.01758030   -0.00000000   -0.00334628
     atom    2 type  1   force =    -0.01785261    0.00000000   -0.00345816
     atom    3 type  1   force =     0.00032608    0.00000000    0.01268336
     atom    4 type  1   force =    -0.00004382    0.00000000   -0.01157549
     atom    5 type  2   force =     0.00000000    0.00000000    0.00000000
     atom    6 type  2   force =     0.00000000    0.00000000    0.00000000
     atom    7 type  1   force =     0.00020170   -0.00015043   -0.00000409
     atom    8 type  1   force =    -0.00004900   -0.00025579   -0.00002627
     atom    9 type  2   force =     0.00000000    0.00000000    0.00000000
     atom   10 type  2   force =     0.00000000    0.00000000    0.00000000
     atom   11 type  1   force =     0.00020170    0.00015043   -0.00000409
     atom   12 type  1   force =    -0.00004900    0.00025579   -0.00002627
     atom   13 type  1   force =    -0.00008251    0.00000000   -0.00068425
     atom   14 type  1   force =     0.00010859    0.00000000    0.00222278
     atom   15 type  1   force =     0.00005580    0.00000000    0.00065784
     atom   16 type  1   force =    -0.00007278   -0.00000000   -0.00103982
     atom   17 type  2   force =     0.00000000    0.00000000    0.00000000
     atom   18 type  2   force =     0.00000000    0.00000000    0.00000000
     atom   19 type  1   force =    -0.00037837    0.00093224   -0.00000221
     atom   20 type  1   force =     0.00031956    0.00020900   -0.00000215
     atom   21 type  2   force =     0.00000000    0.00000000    0.00000000
     atom   22 type  2   force =     0.00000000    0.00000000    0.00000000
     atom   23 type  1   force =    -0.00037837   -0.00093271   -0.00000221
     atom   24 type  1   force =     0.00031956   -0.00020949   -0.00000215
     atom   25 type  1   force =     0.00005578    0.00000000   -0.00065999
     atom   26 type  1   force =    -0.00007280   -0.00000000    0.00103765
     atom   27 type  1   force =    -0.00008251   -0.00000000    0.00068197
     atom   28 type  1   force =     0.00010860    0.00000000   -0.00222516
     atom   29 type  2   force =     0.00000000    0.00000000    0.00000000
     atom   30 type  2   force =     0.00000000    0.00000000    0.00000000
     atom   31 type  1   force =     0.00020182   -0.00015038    0.00000201
     atom   32 type  1   force =    -0.00004910   -0.00025574    0.00002417
     atom   33 type  2   force =     0.00000000    0.00000000    0.00000000
     atom   34 type  2   force =     0.00000000    0.00000000    0.00000000
     atom   35 type  1   force =     0.00020182    0.00015038    0.00000201
     atom   36 type  1   force =    -0.00004910    0.00025574    0.00002417
     atom   37 type  1   force =     0.00032611   -0.00000000   -0.01268708
     atom   38 type  1   force =    -0.00004381    0.00000000    0.01157169
     atom   39 type  1   force =    -0.01758112   -0.00000000    0.00334405
     atom   40 type  1   force =    -0.01785346   -0.00000000    0.00345604
     atom   41 type  3   force =     0.00000000    0.00000000    0.00000000
     atom   42 type  3   force =     0.00000000    0.00000000    0.00000000
     atom   43 type  3   force =     0.00000000    0.00000000    0.00000000
     atom   44 type  3   force =     0.00000000    0.00000000    0.00000000
     atom   45 type  3   force =     0.00000000    0.00000000    0.00000000
     atom   46 type  3   force =     0.00000000    0.00000000    0.00000000
     atom   47 type  3   force =     0.00000000    0.00000000    0.00000000
     atom   48 type  3   force =     0.00000000    0.00000000    0.00000000
     The Hubbard contrib.    to forces
     atom    1 type  1   force =     0.00000000    0.00000000    0.00000000
     atom    2 type  1   force =     0.00000000    0.00000000    0.00000000
     atom    3 type  1   force =     0.00000000    0.00000000    0.00000000
     atom    4 type  1   force =     0.00000000    0.00000000    0.00000000
     atom    5 type  2   force =     0.00000000    0.00000000    0.00000000
     atom    6 type  2   force =     0.00000000    0.00000000    0.00000000
     atom    7 type  1   force =     0.00000000    0.00000000    0.00000000
     atom    8 type  1   force =     0.00000000    0.00000000    0.00000000
     atom    9 type  2   force =     0.00000000    0.00000000    0.00000000
     atom   10 type  2   force =     0.00000000    0.00000000    0.00000000
     atom   11 type  1   force =     0.00000000    0.00000000    0.00000000
     atom   12 type  1   force =     0.00000000    0.00000000    0.00000000
     atom   13 type  1   force =     0.00000000    0.00000000    0.00000000
     atom   14 type  1   force =     0.00000000    0.00000000    0.00000000
     atom   15 type  1   force =     0.00000000    0.00000000    0.00000000
     atom   16 type  1   force =     0.00000000    0.00000000    0.00000000
     atom   17 type  2   force =     0.00000000    0.00000000    0.00000000
     atom   18 type  2   force =     0.00000000    0.00000000    0.00000000
     atom   19 type  1   force =     0.00000000    0.00000000    0.00000000
     atom   20 type  1   force =     0.00000000    0.00000000    0.00000000
     atom   21 type  2   force =     0.00000000    0.00000000    0.00000000
     atom   22 type  2   force =     0.00000000    0.00000000    0.00000000
     atom   23 type  1   force =     0.00000000    0.00000000    0.00000000
     atom   24 type  1   force =     0.00000000    0.00000000    0.00000000
     atom   25 type  1   force =     0.00000000    0.00000000    0.00000000
     atom   26 type  1   force =     0.00000000    0.00000000    0.00000000
     atom   27 type  1   force =     0.00000000    0.00000000    0.00000000
     atom   28 type  1   force =     0.00000000    0.00000000    0.00000000
     atom   29 type  2   force =     0.00000000    0.00000000    0.00000000
     atom   30 type  2   force =     0.00000000    0.00000000    0.00000000
     atom   31 type  1   force =     0.00000000    0.00000000    0.00000000
     atom   32 type  1   force =     0.00000000    0.00000000    0.00000000
     atom   33 type  2   force =     0.00000000    0.00000000    0.00000000
     atom   34 type  2   force =     0.00000000    0.00000000    0.00000000
     atom   35 type  1   force =     0.00000000    0.00000000    0.00000000
     atom   36 type  1   force =     0.00000000    0.00000000    0.00000000
     atom   37 type  1   force =     0.00000000    0.00000000    0.00000000
     atom   38 type  1   force =     0.00000000    0.00000000    0.00000000
     atom   39 type  1   force =     0.00000000    0.00000000    0.00000000
     atom   40 type  1   force =     0.00000000    0.00000000    0.00000000
     atom   41 type  3   force =     0.00000000    0.00000000    0.00000000
     atom   42 type  3   force =     0.00000000    0.00000000    0.00000000
     atom   43 type  3   force =     0.00000000    0.00000000    0.00000000
     atom   44 type  3   force =     0.00000000    0.00000000    0.00000000
     atom   45 type  3   force =     0.00000000    0.00000000    0.00000000
     atom   46 type  3   force =     0.00000000    0.00000000    0.00000000
     atom   47 type  3   force =     0.00000000    0.00000000    0.00000000
     atom   48 type  3   force =     0.00000000    0.00000000    0.00000000
     The SCF correction term to forces
     atom    1 type  1   force =     0.00000850   -0.00000003    0.00000291
     atom    2 type  1   force =    -0.00000606   -0.00000003    0.00000206
     atom    3 type  1   force =     0.00000929    0.00000004   -0.00000344
     atom    4 type  1   force =    -0.00000787    0.00000005    0.00000194
     atom    5 type  2   force =    -0.00000143    0.00000022    0.00001445
     atom    6 type  2   force =    -0.00000126    0.00000022    0.00002552
     atom    7 type  1   force =    -0.00000033    0.00000120    0.00000295
     atom    8 type  1   force =     0.00000009    0.00000439    0.00000710
     atom    9 type  2   force =     0.00001075   -0.00000021    0.00001249
     atom   10 type  2   force =    -0.00001024   -0.00000021    0.00000378
     atom   11 type  1   force =    -0.00000033   -0.00000126    0.00000290
     atom   12 type  1   force =     0.00000009   -0.00000445    0.00000705
     atom   13 type  1   force =     0.00000376    0.00000011    0.00001718
     atom   14 type  1   force =    -0.00000376    0.00000011    0.00000989
     atom   15 type  1   force =    -0.00000016   -0.00000013    0.00000706
     atom   16 type  1   force =     0.00000002   -0.00000013    0.00000473
     atom   17 type  2   force =     0.00000197    0.00000042    0.00001030
     atom   18 type  2   force =    -0.00000219    0.00000042    0.00001052
     atom   19 type  1   force =    -0.00000657   -0.00000657    0.00000378
     atom   20 type  1   force =     0.00000657   -0.00000373    0.00000376
     atom   21 type  2   force =    -0.00000740   -0.00000043    0.00001048
     atom   22 type  2   force =     0.00000756   -0.00000043    0.00001044
     atom   23 type  1   force =    -0.00000657    0.00000668    0.00000378
     atom   24 type  1   force =     0.00000657    0.00000385    0.00000376
     atom   25 type  1   force =    -0.00000014   -0.00000013   -0.00000262
     atom   26 type  1   force =    -0.00000000   -0.00000013   -0.00000058
     atom   27 type  1   force =     0.00000380    0.00000011   -0.00001656
     atom   28 type  1   force =    -0.00000380    0.00000011   -0.00000931
     atom   29 type  2   force =    -0.00000184    0.00000022   -0.00002713
     atom   30 type  2   force =    -0.00000086    0.00000022   -0.00003818
     atom   31 type  1   force =    -0.00000024    0.00000083   -0.00000752
     atom   32 type  1   force =     0.00000000    0.00000403   -0.00001167
     atom   33 type  2   force =     0.00001085   -0.00000021   -0.00002520
     atom   34 type  2   force =    -0.00001035   -0.00000021   -0.00001716
     atom   35 type  1   force =    -0.00000024   -0.00000088   -0.00000747
     atom   36 type  1   force =     0.00000000   -0.00000409   -0.00001162
     atom   37 type  1   force =     0.00000933    0.00000004    0.00000007
     atom   38 type  1   force =    -0.00000791    0.00000005   -0.00000628
     atom   39 type  1   force =     0.00000845   -0.00000003   -0.00000467
     atom   40 type  1   force =    -0.00000614   -0.00000003   -0.00000386
     atom   41 type  3   force =     0.00000083   -0.00000000    0.00000032
     atom   42 type  3   force =     0.00000091   -0.00000000   -0.00000054
     atom   43 type  3   force =    -0.00000102   -0.00000000    0.00000009
     atom   44 type  3   force =    -0.00000095   -0.00000000   -0.00000028
     atom   45 type  3   force =     0.00000097    0.00000026   -0.00000035
     atom   46 type  3   force =     0.00000097    0.00000030    0.00000008
     atom   47 type  3   force =     0.00000097   -0.00000026   -0.00000035
     atom   48 type  3   force =     0.00000097   -0.00000030    0.00000009

     Total force =     0.431274     Total SCF correction =     0.000087

     BFGS Geometry Optimization
     Energy error            =      0.0E+00 Ry
     Gradient error          =      1.3E-01 Ry/Bohr

     number of scf cycles    =   1
     number of bfgs steps    =   0

     energy             new  =   -3437.5371615322 Ry

     new trust radius        =       0.1338862052 bohr
     new conv_thr            =       0.0000000010 Ry


ATOMIC_POSITIONS (crystal)
O            -0.0004711753        0.5000000000        0.2681976750
O             0.4989129355        0.5000000000        0.2666726889
O            -0.0027467200        0.0000000000        0.2914143004
O             0.4983454245        0.0000000000        0.3073454332
Ru            0.2603877971        0.0000000000        0.3574818321
Ru            0.7359042787        0.0000000000        0.3575875522
O             0.2466954181        0.3126135338        0.3564148796
O             0.7498552438        0.3124879622        0.3563792723
Ru           -0.0019173197        0.5000000000        0.3591097325
Ru            0.4983945963        0.5000000000        0.3552787683
O             0.2466954181        0.6873864662        0.3564148796
O             0.7498552438        0.6875120378        0.3563792723
O            -0.0011355906        0.0000000000        0.4112094287
O             0.4976859268        0.0000000000        0.4120936995
O            -0.0016634229        0.5000000000        0.4460173422
O             0.4986258856        0.5000000000        0.4426870679
Ru           -0.0014068137        0.0000000000        0.5000010000
Ru            0.4975269369        0.0000000000        0.5000010000
O             0.2476472439        0.1880088512        0.5000010000
O             0.7488289957        0.1871843608        0.5000010000
Ru            0.2519430892        0.5000000000        0.5000010000
Ru            0.7443378285        0.5000000000        0.5000010000
O             0.2476472439        0.8119921488        0.5000010000
O             0.7488289957        0.8128166392        0.5000010000
O            -0.0016634229        0.5000000000        0.5539836578
O             0.4986258856        0.5000000000        0.5573139321
O            -0.0011355906        0.0000000000        0.5887915713
O             0.4976859268        0.0000000000        0.5879073005
Ru            0.2603877971        0.0000000000        0.6425191679
Ru            0.7359042787        0.0000000000        0.6424134478
O             0.2466954181        0.3126135338        0.6435861204
O             0.7498552438        0.3124879622        0.6436217277
Ru           -0.0019173197        0.5000000000        0.6408912675
Ru            0.4983945963        0.5000000000        0.6447222317
O             0.2466954181        0.6873864662        0.6435861204
O             0.7498552438        0.6875120378        0.6436217277
O            -0.0027467200        0.0000000000        0.7085876996
O             0.4983454245        0.0000000000        0.6926565668
O            -0.0004711753        0.5000000000        0.7318033250
O             0.4989129355        0.5000000000        0.7333283111
H             0.1398193108        0.5000000000        0.2557919094
H             0.1398193108        0.5000000000        0.7442080906
H             0.6385826573        0.5000000000        0.2533978196
H             0.6385826573        0.5000000000        0.7466021804
H            -0.0046163339        0.1311600178        0.2603620733
H            -0.0046163339        0.1311600178        0.7396379267
H            -0.0046163339        0.8688399822        0.2603620733
H            -0.0046163339        0.8688399822        0.7396379267



     Writing config-only to output data dir /storage/home/mgm6007/ixd4/Maria/StrainJin_Files/RuO2-110-0-0124/RuO2-110-0-0124.save/
     NEW-OLD atomic charge density approx. for the potential

     Check: negative core charge=   -0.000001

     negative rho (up, down):  1.112E-04 0.000E+00

     add environment contribution to local potential
     Polarization accuracy = 4.3E-12, # of iterations =  42

     total cpu time spent up to now is    11207.2 secs

     per-process dynamical memory:   204.0 Mb

     Self-consistent Calculation

     iteration #  1     ecut=    50.00 Ry     beta= 0.70
     Davidson diagonalization with overlap
     ethr =  1.00E-06,  avg # of iterations =  9.0

     negative rho (up, down):  1.152E-04 0.000E+00

     add environment contribution to local potential
     Polarization accuracy = 5.8E-12, # of iterations =  42

     total cpu time spent up to now is    11534.3 secs

     total energy              =   -3437.58469197 Ry
     estimated scf accuracy    <       0.06253749 Ry
     electrostatic embedding   =      -0.07273528 Ry
     cavitation energy         =       0.02060751 Ry
     PV energy                 =      -0.08231502 Ry
     correction to one-el term =     185.24324569 Ry

     iteration #  2     ecut=    50.00 Ry     beta= 0.70
     Davidson diagonalization with overlap
     ethr =  1.70E-05,  avg # of iterations =  2.0

     negative rho (up, down):  1.556E-04 0.000E+00

     add environment contribution to local potential
     Polarization accuracy = 5.1E-12, # of iterations =  42

     total cpu time spent up to now is    11816.0 secs

     total energy              =   -3437.58861254 Ry
     estimated scf accuracy    <       0.04415014 Ry
     electrostatic embedding   =      -0.07182443 Ry
     cavitation energy         =       0.02063753 Ry
     PV energy                 =      -0.08225284 Ry
     correction to one-el term =     185.61051673 Ry

     iteration #  3     ecut=    50.00 Ry     beta= 0.70
     Davidson diagonalization with overlap
     ethr =  1.20E-05,  avg # of iterations =  1.0

     negative rho (up, down):  2.289E-04 0.000E+00

     add environment contribution to local potential
     Polarization accuracy = 3.9E-12, # of iterations =  42

     total cpu time spent up to now is    12094.6 secs

     total energy              =   -3437.59102723 Ry
     estimated scf accuracy    <       0.01184522 Ry
     electrostatic embedding   =      -0.07172415 Ry
     cavitation energy         =       0.02062522 Ry
     PV energy                 =      -0.08226512 Ry
     correction to one-el term =     185.63914681 Ry

     iteration #  4     ecut=    50.00 Ry     beta= 0.70
     Davidson diagonalization with overlap
     ethr =  3.22E-06,  avg # of iterations =  2.0

     negative rho (up, down):  2.585E-04 0.000E+00

     add environment contribution to local potential
     Polarization accuracy = 2.9E-12, # of iterations =  42

     total cpu time spent up to now is    12310.3 secs

     total energy              =   -3437.59170510 Ry
     estimated scf accuracy    <       0.00171204 Ry
     electrostatic embedding   =      -0.07197884 Ry
     cavitation energy         =       0.02062581 Ry
     PV energy                 =      -0.08227298 Ry
     correction to one-el term =     185.73230247 Ry

     iteration #  5     ecut=    50.00 Ry     beta= 0.70
     Davidson diagonalization with overlap
     ethr =  4.65E-07,  avg # of iterations =  2.0

     negative rho (up, down):  2.447E-04 0.000E+00

     add environment contribution to local potential
     Polarization accuracy = 2.7E-12, # of iterations =  42

     total cpu time spent up to now is    12601.7 secs

     total energy              =   -3437.59185405 Ry
     estimated scf accuracy    <       0.00083558 Ry
     electrostatic embedding   =      -0.07241444 Ry
     cavitation energy         =       0.02061851 Ry
     PV energy                 =      -0.08228321 Ry
     correction to one-el term =     185.73471949 Ry

     iteration #  6     ecut=    50.00 Ry     beta= 0.70
     Davidson diagonalization with overlap
     ethr =  2.27E-07,  avg # of iterations =  2.0

     negative rho (up, down):  2.106E-04 0.000E+00

     add environment contribution to local potential
     Polarization accuracy = 2.6E-12, # of iterations =  42

     total cpu time spent up to now is    12910.7 secs

     total energy              =   -3437.59190404 Ry
     estimated scf accuracy    <       0.00009452 Ry
     electrostatic embedding   =      -0.07276226 Ry
     cavitation energy         =       0.02061451 Ry
     PV energy                 =      -0.08228883 Ry
     correction to one-el term =     185.70758365 Ry

     iteration #  7     ecut=    50.00 Ry     beta= 0.70
     Davidson diagonalization with overlap
     ethr =  2.57E-08,  avg # of iterations =  2.0

     negative rho (up, down):  1.692E-04 0.000E+00

     add environment contribution to local potential
     Polarization accuracy = 2.3E-12, # of iterations =  42

     total cpu time spent up to now is    13211.4 secs

     total energy              =   -3437.59192221 Ry
     estimated scf accuracy    <       0.00004177 Ry
     electrostatic embedding   =      -0.07325565 Ry
     cavitation energy         =       0.02061123 Ry
     PV energy                 =      -0.08229258 Ry
     correction to one-el term =     185.65584602 Ry

     iteration #  8     ecut=    50.00 Ry     beta= 0.70
     Davidson diagonalization with overlap
     ethr =  1.14E-08,  avg # of iterations =  2.0

     negative rho (up, down):  1.266E-04 0.000E+00

     add environment contribution to local potential
     Polarization accuracy = 2.1E-12, # of iterations =  42

     total cpu time spent up to now is    13459.6 secs

     total energy              =   -3437.59193291 Ry
     estimated scf accuracy    <       0.00002432 Ry
     electrostatic embedding   =      -0.07377215 Ry
     cavitation energy         =       0.02060914 Ry
     PV energy                 =      -0.08229491 Ry
     correction to one-el term =     185.59014099 Ry

     iteration #  9     ecut=    50.00 Ry     beta= 0.70
     Davidson diagonalization with overlap
     ethr =  6.61E-09,  avg # of iterations =  2.0

     negative rho (up, down):  8.959E-05 0.000E+00

     add environment contribution to local potential
     Polarization accuracy = 2.9E-12, # of iterations =  42

     total cpu time spent up to now is    13762.1 secs

     total energy              =   -3437.59194008 Ry
     estimated scf accuracy    <       0.00000735 Ry
     electrostatic embedding   =      -0.07434696 Ry
     cavitation energy         =       0.02060840 Ry
     PV energy                 =      -0.08229548 Ry
     correction to one-el term =     185.51430394 Ry

     iteration # 10     ecut=    50.00 Ry     beta= 0.70
     Davidson diagonalization with overlap
     ethr =  2.00E-09,  avg # of iterations =  3.0

     negative rho (up, down):  7.145E-05 0.000E+00

     add environment contribution to local potential
     Polarization accuracy = 3.1E-12, # of iterations =  42

     total cpu time spent up to now is    14024.3 secs

     total energy              =   -3437.59194504 Ry
     estimated scf accuracy    <       0.00000223 Ry
     electrostatic embedding   =      -0.07494562 Ry
     cavitation energy         =       0.02060963 Ry
     PV energy                 =      -0.08229370 Ry
     correction to one-el term =     185.43429233 Ry

     iteration # 11     ecut=    50.00 Ry     beta= 0.70
     Davidson diagonalization with overlap
     ethr =  6.05E-10,  avg # of iterations =  3.0

     negative rho (up, down):  6.559E-05 0.000E+00

     add environment contribution to local potential
     Polarization accuracy = 3.2E-12, # of iterations =  42

     total cpu time spent up to now is    14291.9 secs

     total energy              =   -3437.59194629 Ry
     estimated scf accuracy    <       0.00000124 Ry
     electrostatic embedding   =      -0.07533457 Ry
     cavitation energy         =       0.02061152 Ry
     PV energy                 =      -0.08229115 Ry
     correction to one-el term =     185.38014657 Ry

     iteration # 12     ecut=    50.00 Ry     beta= 0.70
     Davidson diagonalization with overlap
     ethr =  3.38E-10,  avg # of iterations =  2.0

     negative rho (up, down):  6.562E-05 0.000E+00

     add environment contribution to local potential
     Polarization accuracy = 2.5E-12, # of iterations =  42

     total cpu time spent up to now is    14554.4 secs

     total energy              =   -3437.59194675 Ry
     estimated scf accuracy    <       0.00000060 Ry
     electrostatic embedding   =      -0.07553422 Ry
     cavitation energy         =       0.02061311 Ry
     PV energy                 =      -0.08228886 Ry
     correction to one-el term =     185.35242558 Ry

     iteration # 13     ecut=    50.00 Ry     beta= 0.70
     Davidson diagonalization with overlap
     ethr =  1.64E-10,  avg # of iterations =  2.0

     negative rho (up, down):  6.860E-05 0.000E+00

     add environment contribution to local potential
     Polarization accuracy = 2.5E-12, # of iterations =  42

     total cpu time spent up to now is    14834.5 secs

     total energy              =   -3437.59194697 Ry
     estimated scf accuracy    <       0.00000038 Ry
     electrostatic embedding   =      -0.07566220 Ry
     cavitation energy         =       0.02061441 Ry
     PV energy                 =      -0.08228668 Ry
     correction to one-el term =     185.33500069 Ry

     iteration # 14     ecut=    50.00 Ry     beta= 0.70
     Davidson diagonalization with overlap
     ethr =  1.03E-10,  avg # of iterations =  2.0

     negative rho (up, down):  8.014E-05 0.000E+00

     add environment contribution to local potential
     Polarization accuracy = 2.5E-12, # of iterations =  42

     total cpu time spent up to now is    15140.7 secs

     total energy              =   -3437.59194699 Ry
     estimated scf accuracy    <       0.00000024 Ry
     electrostatic embedding   =      -0.07569851 Ry
     cavitation energy         =       0.02061458 Ry
     PV energy                 =      -0.08228609 Ry
     correction to one-el term =     185.33076387 Ry

     iteration # 15     ecut=    50.00 Ry     beta= 0.70
     Davidson diagonalization with overlap
     ethr =  6.45E-11,  avg # of iterations =  2.0

     negative rho (up, down):  9.598E-05 0.000E+00

     add environment contribution to local potential
     Polarization accuracy = 2.3E-12, # of iterations =  42

     total cpu time spent up to now is    15422.2 secs

     total energy              =   -3437.59194701 Ry
     estimated scf accuracy    <       0.00000018 Ry
     electrostatic embedding   =      -0.07566156 Ry
     cavitation energy         =       0.02061440 Ry
     PV energy                 =      -0.08228557 Ry
     correction to one-el term =     185.33708473 Ry

     iteration # 16     ecut=    50.00 Ry     beta= 0.70
     Davidson diagonalization with overlap
     ethr =  4.92E-11,  avg # of iterations =  2.0

     negative rho (up, down):  1.079E-04 0.000E+00

     add environment contribution to local potential
     Polarization accuracy = 3.8E-12, # of iterations =  42

     total cpu time spent up to now is    15731.1 secs

[...]
     atom   15 type  1   force =     0.06989841   -0.00000000   25.40683629
     atom   16 type  1   force =    -0.04473029   -0.00000000   25.76008228
     atom   17 type  2   force =     0.08198236    0.00000000   -0.00591953
     atom   18 type  2   force =    -0.03722064    0.00000000   -0.00583321
     atom   19 type  1   force =     0.24410092   -0.56328098   -0.00246851
     atom   20 type  1   force =    -0.22770693   -0.57110754   -0.00247045
     atom   21 type  2   force =    -0.04793061   -0.00000000   -0.00604590
     atom   22 type  2   force =    -0.08237129   -0.00000000   -0.00605081
     atom   23 type  1   force =     0.24410009    0.56293326   -0.00246851
     atom   24 type  1   force =    -0.22770709    0.57075991   -0.00247045
     atom   25 type  1   force =     0.06990149   -0.00000000  -25.40859699
     atom   26 type  1   force =    -0.04473449    0.00000000  -25.76184266
     atom   27 type  1   force =     0.04382871    0.00000000  -40.41575386
     atom   28 type  1   force =    -0.07643922   -0.00000000  -36.97572995
     atom   29 type  2   force =     6.85834526    0.00000000 -171.80730098
     atom   30 type  2   force =    -6.66150793   -0.00000000 -171.72752554
     atom   31 type  1   force =     0.79203103    0.99784558  -64.03632242
     atom   32 type  1   force =    -0.85042703    0.83533121  -64.95204757
     atom   33 type  2   force =     0.68268022   -0.00000000 -168.95758039
     atom   34 type  2   force =    -0.54735265    0.00000000 -171.26201086
     atom   35 type  1   force =     0.79203103   -0.99784558  -64.03632242
     atom   36 type  1   force =    -0.85042703   -0.83533121  -64.95204757
     atom   37 type  1   force =    -0.10544663    0.00000000  -90.44320880
     atom   38 type  1   force =    -0.03939385   -0.00000000  -94.19883169
     atom   39 type  1   force =     1.39134200    0.00000000  -94.29289267
     atom   40 type  1   force =     0.92236330    0.00000000  -95.36014777
     atom   41 type  3   force =    -2.81812282   -0.00000000   16.11896013
     atom   42 type  3   force =    -2.81812282   -0.00000000  -16.11896013
     atom   43 type  3   force =    -2.83628388   -0.00000000   16.37607230
     atom   44 type  3   force =    -2.83628388   -0.00000000  -16.37607230
     atom   45 type  3   force =     0.06744427   -2.12556344   16.88269807
     atom   46 type  3   force =     0.06744427   -2.12556344  -16.88269807
     atom   47 type  3   force =     0.06744427    2.12556344   16.88269807
     atom   48 type  3   force =     0.06744427    2.12556344  -16.88269807
     The core correction contribution to forces
     atom    1 type  1   force =    -0.01704353   -0.00000000   -0.00408577
     atom    2 type  1   force =    -0.01772355    0.00000000   -0.00254219
     atom    3 type  1   force =     0.00058846    0.00000000    0.01385029
     atom    4 type  1   force =    -0.00004175   -0.00000000   -0.01207215
     atom    5 type  2   force =     0.00000000    0.00000000    0.00000000
     atom    6 type  2   force =     0.00000000    0.00000000    0.00000000
     atom    7 type  1   force =    -0.00009663    0.00075826    0.00006734
     atom    8 type  1   force =     0.00040501    0.00086595   -0.00011677
     atom    9 type  2   force =     0.00000000    0.00000000    0.00000000
     atom   10 type  2   force =     0.00000000    0.00000000    0.00000000
     atom   11 type  1   force =    -0.00009663   -0.00075826    0.00006734
     atom   12 type  1   force =     0.00040501   -0.00086595   -0.00011677
     atom   13 type  1   force =     0.00002507    0.00000000   -0.00156174
     atom   14 type  1   force =     0.00010305    0.00000000    0.00250199
     atom   15 type  1   force =     0.00008979    0.00000000    0.00043841
     atom   16 type  1   force =    -0.00001372    0.00000000   -0.00028479
     atom   17 type  2   force =     0.00000000    0.00000000    0.00000000
     atom   18 type  2   force =     0.00000000    0.00000000    0.00000000
     atom   19 type  1   force =    -0.00024014   -0.00040666   -0.00000208
     atom   20 type  1   force =     0.00011646   -0.00040622   -0.00000208
     atom   21 type  2   force =     0.00000000    0.00000000    0.00000000
     atom   22 type  2   force =     0.00000000    0.00000000    0.00000000
     atom   23 type  1   force =    -0.00024015    0.00040615   -0.00000208
     atom   24 type  1   force =     0.00011647    0.00040571   -0.00000208
     atom   25 type  1   force =     0.00008977    0.00000000   -0.00044065
     atom   26 type  1   force =    -0.00001374   -0.00000000    0.00028261
     atom   27 type  1   force =     0.00002508   -0.00000000    0.00155940
     atom   28 type  1   force =     0.00010307   -0.00000000   -0.00250441
     atom   29 type  2   force =     0.00000000    0.00000000    0.00000000
     atom   30 type  2   force =     0.00000000    0.00000000    0.00000000
     atom   31 type  1   force =    -0.00009651    0.00075831   -0.00006932
     atom   32 type  1   force =     0.00040492    0.00086603    0.00011477
     atom   33 type  2   force =     0.00000000    0.00000000    0.00000000
     atom   34 type  2   force =     0.00000000    0.00000000    0.00000000
     atom   35 type  1   force =    -0.00009651   -0.00075831   -0.00006932
     atom   36 type  1   force =     0.00040492   -0.00086603    0.00011477
     atom   37 type  1   force =     0.00058851    0.00000000   -0.01385397
     atom   38 type  1   force =    -0.00004176   -0.00000000    0.01206841
     atom   39 type  1   force =    -0.01704429   -0.00000000    0.00408347
     atom   40 type  1   force =    -0.01772436    0.00000000    0.00253982
     atom   41 type  3   force =     0.00000000    0.00000000    0.00000000
     atom   42 type  3   force =     0.00000000    0.00000000    0.00000000
     atom   43 type  3   force =     0.00000000    0.00000000    0.00000000
     atom   44 type  3   force =     0.00000000    0.00000000    0.00000000
     atom   45 type  3   force =     0.00000000    0.00000000    0.00000000
     atom   46 type  3   force =     0.00000000    0.00000000    0.00000000
     atom   47 type  3   force =     0.00000000    0.00000000    0.00000000
     atom   48 type  3   force =     0.00000000    0.00000000    0.00000000
     The Hubbard contrib.    to forces
     atom    1 type  1   force =     0.00000000    0.00000000    0.00000000
     atom    2 type  1   force =     0.00000000    0.00000000    0.00000000
     atom    3 type  1   force =     0.00000000    0.00000000    0.00000000
     atom    4 type  1   force =     0.00000000    0.00000000    0.00000000
     atom    5 type  2   force =     0.00000000    0.00000000    0.00000000
     atom    6 type  2   force =     0.00000000    0.00000000    0.00000000
     atom    7 type  1   force =     0.00000000    0.00000000    0.00000000
     atom    8 type  1   force =     0.00000000    0.00000000    0.00000000
     atom    9 type  2   force =     0.00000000    0.00000000    0.00000000
     atom   10 type  2   force =     0.00000000    0.00000000    0.00000000
     atom   11 type  1   force =     0.00000000    0.00000000    0.00000000
     atom   12 type  1   force =     0.00000000    0.00000000    0.00000000
     atom   13 type  1   force =     0.00000000    0.00000000    0.00000000
     atom   14 type  1   force =     0.00000000    0.00000000    0.00000000
     atom   15 type  1   force =     0.00000000    0.00000000    0.00000000
     atom   16 type  1   force =     0.00000000    0.00000000    0.00000000
     atom   17 type  2   force =     0.00000000    0.00000000    0.00000000
     atom   18 type  2   force =     0.00000000    0.00000000    0.00000000
     atom   19 type  1   force =     0.00000000    0.00000000    0.00000000
     atom   20 type  1   force =     0.00000000    0.00000000    0.00000000
     atom   21 type  2   force =     0.00000000    0.00000000    0.00000000
     atom   22 type  2   force =     0.00000000    0.00000000    0.00000000
     atom   23 type  1   force =     0.00000000    0.00000000    0.00000000
     atom   24 type  1   force =     0.00000000    0.00000000    0.00000000
     atom   25 type  1   force =     0.00000000    0.00000000    0.00000000
     atom   26 type  1   force =     0.00000000    0.00000000    0.00000000
     atom   27 type  1   force =     0.00000000    0.00000000    0.00000000
     atom   28 type  1   force =     0.00000000    0.00000000    0.00000000
     atom   29 type  2   force =     0.00000000    0.00000000    0.00000000
     atom   30 type  2   force =     0.00000000    0.00000000    0.00000000
     atom   31 type  1   force =     0.00000000    0.00000000    0.00000000
     atom   32 type  1   force =     0.00000000    0.00000000    0.00000000
     atom   33 type  2   force =     0.00000000    0.00000000    0.00000000
     atom   34 type  2   force =     0.00000000    0.00000000    0.00000000
     atom   35 type  1   force =     0.00000000    0.00000000    0.00000000
     atom   36 type  1   force =     0.00000000    0.00000000    0.00000000
     atom   37 type  1   force =     0.00000000    0.00000000    0.00000000
     atom   38 type  1   force =     0.00000000    0.00000000    0.00000000
     atom   39 type  1   force =     0.00000000    0.00000000    0.00000000
     atom   40 type  1   force =     0.00000000    0.00000000    0.00000000
     atom   41 type  3   force =     0.00000000    0.00000000    0.00000000
     atom   42 type  3   force =     0.00000000    0.00000000    0.00000000
     atom   43 type  3   force =     0.00000000    0.00000000    0.00000000
     atom   44 type  3   force =     0.00000000    0.00000000    0.00000000
     atom   45 type  3   force =     0.00000000    0.00000000    0.00000000
     atom   46 type  3   force =     0.00000000    0.00000000    0.00000000
     atom   47 type  3   force =     0.00000000    0.00000000    0.00000000
     atom   48 type  3   force =     0.00000000    0.00000000    0.00000000
     The SCF correction term to forces
     atom    1 type  1   force =    -0.00000098    0.00000000    0.00000137
     atom    2 type  1   force =     0.00000070    0.00000000    0.00000118
     atom    3 type  1   force =    -0.00000226   -0.00000000    0.00000023
     atom    4 type  1   force =     0.00000224   -0.00000000    0.00000101
     atom    5 type  2   force =    -0.00000221   -0.00000000    0.00000459
     atom    6 type  2   force =     0.00000319   -0.00000000    0.00000274
     atom    7 type  1   force =    -0.00000117    0.00000150    0.00000150
     atom    8 type  1   force =     0.00000101    0.00000010    0.00000112
     atom    9 type  2   force =    -0.00000222    0.00000000    0.00000250
     atom   10 type  2   force =     0.00000231    0.00000000    0.00000355
     atom   11 type  1   force =    -0.00000117   -0.00000150    0.00000150
     atom   12 type  1   force =     0.00000101   -0.00000010    0.00000112
     atom   13 type  1   force =    -0.00000127   -0.00000000    0.00000164
     atom   14 type  1   force =     0.00000150    0.00000000    0.00000179
     atom   15 type  1   force =    -0.00000051    0.00000000    0.00000022
     atom   16 type  1   force =     0.00000054   -0.00000000    0.00000072
     atom   17 type  2   force =    -0.00000130   -0.00000000    0.00000001
     atom   18 type  2   force =     0.00000112    0.00000000    0.00000001
     atom   19 type  1   force =    -0.00000067   -0.00000041    0.00000000
     atom   20 type  1   force =     0.00000068   -0.00000041    0.00000000
     atom   21 type  2   force =    -0.00000043    0.00000000    0.00000001
     atom   22 type  2   force =     0.00000162    0.00000000    0.00000001
     atom   23 type  1   force =    -0.00000067    0.00000041    0.00000000
     atom   24 type  1   force =     0.00000068    0.00000041    0.00000000
     atom   25 type  1   force =    -0.00000051    0.00000000   -0.00000022
     atom   26 type  1   force =     0.00000054   -0.00000000   -0.00000071
     atom   27 type  1   force =    -0.00000127   -0.00000000   -0.00000164
     atom   28 type  1   force =     0.00000150    0.00000000   -0.00000179
     atom   29 type  2   force =    -0.00000222   -0.00000000   -0.00000458
     atom   30 type  2   force =     0.00000319   -0.00000000   -0.00000273
     atom   31 type  1   force =    -0.00000117    0.00000150   -0.00000150
     atom   32 type  1   force =     0.00000101    0.00000010   -0.00000111
     atom   33 type  2   force =    -0.00000222    0.00000000   -0.00000249
     atom   34 type  2   force =     0.00000231    0.00000000   -0.00000354
     atom   35 type  1   force =    -0.00000117   -0.00000150   -0.00000150
     atom   36 type  1   force =     0.00000101   -0.00000010   -0.00000111
     atom   37 type  1   force =    -0.00000226    0.00000000   -0.00000024
     atom   38 type  1   force =     0.00000224    0.00000000   -0.00000101
     atom   39 type  1   force =    -0.00000098    0.00000000   -0.00000137
     atom   40 type  1   force =     0.00000070    0.00000000   -0.00000118
     atom   41 type  3   force =    -0.00000020   -0.00000000    0.00000016
     atom   42 type  3   force =    -0.00000020    0.00000000   -0.00000016
     atom   43 type  3   force =     0.00000018    0.00000000    0.00000016
     atom   44 type  3   force =     0.00000018   -0.00000000   -0.00000016
     atom   45 type  3   force =    -0.00000020   -0.00000000    0.00000015
     atom   46 type  3   force =    -0.00000020   -0.00000000   -0.00000015
     atom   47 type  3   force =    -0.00000020    0.00000000    0.00000015
     atom   48 type  3   force =    -0.00000020    0.00000000   -0.00000015

     Total force =     0.000294     Total SCF correction =     0.000016
     Energy error            =      3.0E-07 Ry
     Gradient error          =      6.9E-05 Ry/Bohr

     bfgs converged in  44 scf cycles and  43 bfgs steps
     (criteria: energy <  1.0E-04 Ry, force <  1.0E-04 Ry/Bohr)

     End of BFGS Geometry Optimization

     Final energy             =   -3437.6233176984 Ry

     File /storage/home/mgm6007/ixd4/Maria/StrainJin_Files/RuO2-110-0-0124/RuO2-110-0-0124.bfgs deleted, as requested
Begin final coordinates

ATOMIC_POSITIONS (crystal)
O             0.0034513001        0.5000000000        0.2665639063
O             0.4866982992        0.5000000000        0.2675102388
O            -0.0030407025        0.0000000000        0.2902966597
O             0.4985471945        0.0000000000        0.3067059348
Ru            0.2626732143        0.0000000000        0.3576919678
Ru            0.7351536568        0.0000000000        0.3575224607
O             0.2480545789        0.3134595997        0.3572489782
O             0.7511092975        0.3137100438        0.3560568542
Ru            0.0000980939        0.5000000000        0.3582301544
Ru            0.4994808776        0.5000000000        0.3562270294
O             0.2480545789        0.6865404003        0.3572489782
O             0.7511092975        0.6862899562        0.3560568542
O            -0.0014672711        0.0000000000        0.4105406141
O             0.4991158275        0.0000000000        0.4116203323
O            -0.0006346641        0.5000000000        0.4459814054
O             0.5001744771        0.5000000000        0.4447997531
Ru           -0.0013916695        0.0000000000        0.5000010000
Ru            0.4986461031        0.0000000000        0.5000010000
O             0.2477220511        0.1861755430        0.5000010000
O             0.7493382421        0.1861686419        0.5000010000
Ru            0.2505599324        0.5000000000        0.5000010000
Ru            0.7489572662        0.5000000000        0.5000010000
O             0.2477220511        0.8138254570        0.5000010000
O             0.7493382421        0.8138323581        0.5000010000
O            -0.0006346641        0.5000000000        0.5540195946
O             0.5001744771        0.5000000000        0.5552012469
O            -0.0014672711        0.0000000000        0.5894603859
O             0.4991158275        0.0000000000        0.5883806677
Ru            0.2626732143        0.0000000000        0.6423090322
Ru            0.7351536568        0.0000000000        0.6424785393
O             0.2480545789        0.3134595997        0.6427520218
O             0.7511092975        0.3137100438        0.6439441458
Ru            0.0000980939        0.5000000000        0.6417708456
Ru            0.4994808776        0.5000000000        0.6437739706
O             0.2480545789        0.6865404003        0.6427520218
O             0.7511092975        0.6862899562        0.6439441458
O            -0.0030407025        0.0000000000        0.7097053403
O             0.4985471945        0.0000000000        0.6932960652
O             0.0034513001        0.5000000000        0.7334370937
O             0.4866982992        0.5000000000        0.7324907612
H             0.1472604362        0.5000000000        0.2543107537
H             0.1472604362        0.5000000000        0.7456892463
H             0.6248064622        0.5000000000        0.2508388058
H             0.6248064622        0.5000000000        0.7491611942
H            -0.0054105319        0.1360097277        0.2642934345
H            -0.0054105319        0.1360097277        0.7357065655
H            -0.0054105319        0.8639902723        0.2642934345
H            -0.0054105319        0.8639902723        0.7357065655
End final coordinates



     Writing all to output data dir /storage/home/mgm6007/ixd4/Maria/StrainJin_Files/RuO2-110-0-0124/RuO2-110-0-0124.save/
 
     init_run     :    297.54s CPU    940.94s WALL (       1 calls)
     electrons    :  52694.57s CPU 120783.11s WALL (      44 calls)
     update_pot   :     72.97s CPU     73.02s WALL (      43 calls)
     forces       :     67.83s CPU     68.03s WALL (      44 calls)

     Called by init_run:
     wfcinit      :      0.50s CPU      0.51s WALL (       1 calls)
     potinit      :    220.62s CPU    650.74s WALL (       1 calls)
     hinit0       :     75.95s CPU    289.18s WALL (       1 calls)

     Called by electrons:
     c_bands      :    975.16s CPU    976.13s WALL (     793 calls)
     sum_band     :    202.66s CPU    202.88s WALL (     793 calls)
     v_of_rho     :    102.86s CPU    103.14s WALL (     799 calls)
     newd         :     57.43s CPU     57.48s WALL (     799 calls)
     PAW_pot      :     96.88s CPU     96.92s WALL (     842 calls)
     mix_rho      :    528.58s CPU    529.01s WALL (     793 calls)

     Called by c_bands:
     init_us_2    :     10.74s CPU     10.76s WALL (    1630 calls)
     init_us_2:cp :     10.73s CPU     10.76s WALL (    1630 calls)
     cegterg      :    938.78s CPU    939.62s WALL (     793 calls)

     Called by *egterg:
     cdiaghg      :    117.71s CPU    117.86s WALL (    2326 calls)
     h_psi        :    476.50s CPU    476.96s WALL (    2408 calls)
     s_psi        :     74.70s CPU     74.75s WALL (    2408 calls)
     g_psi        :      2.37s CPU      2.37s WALL (    1614 calls)

     Called by h_psi:
     h_psi:calbec :     74.90s CPU     74.96s WALL (    2408 calls)
     vloc_psi     :    320.12s CPU    320.45s WALL (    2408 calls)
     add_vuspsi   :     75.59s CPU     75.65s WALL (    2408 calls)

     General routines
     calbec       :    118.54s CPU    118.63s WALL (    3420 calls)
     fft          :   9712.54s CPU   9714.33s WALL (   10864 calls)
     ffts         :    197.38s CPU    197.41s WALL (  310529 calls)
     fftw         :    300.37s CPU    300.56s WALL (  922679 calls)
     interpolate  :   9651.86s CPU   9653.64s WALL (     799 calls)
 
     Parallel routines
 
     Environ routines
 
     PWSCF        :     15h34m CPU   1d11h38m WALL

 
   This run was terminated on:  22:59: 3  27Jul2023            

=------------------------------------------------------------------------------=
   JOB DONE.
=------------------------------------------------------------------------------=
