
     Program PWSCF v.7.2 starts on 14Jul2023 at 10:37:38 
        Git branch: heads/qe-7.2
        Last git commit: b4c5e8deeb7d1863e7553a87b45f8d22c21926a5
        Last git commit date: Mon Mar 27 16:12:09 2023 +0000
        Last git commit subject: Merge branch 'merge_fix_hubbard' into 'develop'

     This program is part of the open-source Quantum ESPRESSO suite
     for quantum simulation of materials; please cite
         "P. Giannozzi et al., J. Phys.:Condens. Matter 21 395502 (2009);
         "P. Giannozzi et al., J. Phys.:Condens. Matter 29 465901 (2017);
         "P. Giannozzi et al., J. Chem. Phys. 152 154105 (2020);
          URL http://www.quantum-espresso.org", 
     in publications or presentations arising from this work. More details at
     http://www.quantum-espresso.org/quote

     Parallel version (MPI), running on    20 processors

     MPI processes distributed on     1 nodes
     100124 MiB available memory on the printing compute node when the environment starts
 
     Reading input from RuO2-110-0-2345.in

     Current dimensions of program PWSCF are:
     Max number of different atomic species (ntypx) = 10
     Max number of k-points (npk) =  40000
     Max angular momentum in pseudopotentials (lmaxx) =  4
 
     Reading input from environ.in:
     * Environ restarting
     * setting up water environment
     * using electronic solvent mode
     * setting boundary derivatives method to SCCS default
     
     file O.pbe-n-kjpaw_psl.0.1.UPF: wavefunction(s)  2P renormalized
     Found identity + ( -0.5000  0.0000  0.0000) symmetry
     This is a supercell, fractional translations are disabled
     Message from routine setup:
     using ibrav=0 with symmetry is DISCOURAGED, use correct ibrav instead
 
     R & G space division:  proc/nbgrp/npool/nimage =      20
     Subspace diagonalization in iterative solution of the eigenvalue problem:
     one sub-group per band group will be used
     scalapack distributed-memory algorithm (size of sub-group:  2*  2 procs)

 
     Parallelization info
     --------------------
     sticks:   dense  smooth     PW     G-vecs:    dense   smooth      PW
     Min         276     110     29                54830    13868    1873
     Max         277     111     30                54841    13883    1882
     Sum        5527    2209    585              1096679   277485   37533
 
     Using Slab Decomposition
 


     bravais-lattice index     =            0
     lattice parameter (alat)  =      12.3893  a.u.
     unit-cell volume          =    5808.5831 (a.u.)^3
     number of atoms/cell      =           48
     number of atomic types    =            3
     number of electrons       =       368.00
     number of Kohn-Sham states=          221
     kinetic-energy cutoff     =      50.0000  Ry
     charge density cutoff     =     500.0000  Ry
     scf convergence threshold =      1.0E-10
     mixing beta               =       0.7000
     number of iterations used =            8  local-TF  mixing
     energy convergence thresh.=      1.0E-04
     force convergence thresh. =      1.0E-04
     Exchange-correlation= PBE
                           (   1   4   3   4   0   0   0)
     nstep                     =          200


     ================================================================================
 
                                  Environ Setup Summary

     ================================================================================
 
     Please cite

          O. Andreussi, I. Dabo and N. Marzari, J. Chem. Phys. 136, 064102 (2012)

     in publications or presentations arising from this work.

     ================================================================================
 
     Parameters
     ==========

     compensation onset threshold      =               0.1000E+00
     static permittivity               =                    78.30
     surface tension in input (dyn/cm) =                    47.90
     surface tension in internal units =               0.6153E-04
     external pressure in input (GPa)  =                    -0.36
     external pressure in inter. units =              -0.2447E-04

     Solvent Boundary
     ================

     solvent mode                      =               electronic
     derivatives method                =                    chain
     numerical core for derivatives    =                      fft
     switching function adopted        =                     SCCS
     density limit for vacuum region   =               0.5000E-02
     density limit for bulk solvent    =               0.1000E-03

     Electrostatic Setup
     ===================

     electrostatic problem to solve    =              generalized
     numerical solver adopted          =                       cg
     type of auxiliary density adopted =                     none
     numerical core for poisson        =                      fft
     type of pbc corrections           =                parabolic
     numerical core for corrections    =                      1da

     ================================================================================
 

     celldm(1)=  12.389316  celldm(2)=   0.000000  celldm(3)=   0.000000
     celldm(4)=   0.000000  celldm(5)=   0.000000  celldm(6)=   0.000000

     crystal axes: (cart. coord. in units of alat)
               a(1) = (   1.000000   0.000000   0.000000 )  
               a(2) = (   0.000000   0.904766   0.000000 )  
               a(3) = (   0.000000   0.000000   3.375918 )  

     reciprocal axes: (cart. coord. in units 2 pi/alat)
               b(1) = (  1.000000  0.000000  0.000000 )  
               b(2) = (  0.000000  1.105258  0.000000 )  
               b(3) = (  0.000000  0.000000  0.296216 )  


     PseudoPot. # 1 for O  read from file:
     /gpfs/group/ixd4/default/Simon/pseudopotentials/materialscloud/SSSP_1.3.0_PBE_efficiency/O.pbe-n-kjpaw_psl.0.1.UPF
     MD5 check sum: 0234752ac141de4415c5fc33072bef88
     Pseudo is Projector augmented-wave + core cor, Zval =  6.0
     Generated using "atomic" code by A. Dal Corso  v.5.0.99 svn rev. 10869
     Shape of augmentation charge: BESSEL
     Using radial grid of 1095 points,  4 beta functions with: 
                l(1) =   0
                l(2) =   0
                l(3) =   1
                l(4) =   1
     Q(r) pseudized with 0 coefficients 


     PseudoPot. # 2 for Ru read from file:
     /gpfs/group/ixd4/default/Simon/pseudopotentials/materialscloud/SSSP_1.3.0_PBE_efficiency/Ru_ONCV_PBE-1.0.oncvpsp.upf
     MD5 check sum: be037bb81c227cfb9b1461a9f099f4bd
     Pseudo is Norm-conserving, Zval = 16.0
     Generated using ONCVPSP code by D. R. Hamann
     Using radial grid of 1458 points,  6 beta functions with: 
                l(1) =   0
                l(2) =   0
                l(3) =   1
                l(4) =   1
                l(5) =   2
                l(6) =   2

     PseudoPot. # 3 for H  read from file:
     /gpfs/group/ixd4/default/Simon/pseudopotentials/materialscloud/SSSP_1.3.0_PBE_efficiency/H.pbe-rrkjus_psl.1.0.0.UPF
     MD5 check sum: f52b6d4d1c606e5624b1dc7b2218f220
     Pseudo is Ultrasoft, Zval =  1.0
     Generated using "atomic" code by A. Dal Corso  v.5.1
     Using radial grid of  929 points,  2 beta functions with: 
                l(1) =   0
                l(2) =   0
     Q(r) pseudized with 0 coefficients 


     atomic species   valence    mass     pseudopotential
        O              6.00    15.99940     O ( 1.00)
        Ru            16.00   101.07000     Ru( 1.00)
        H              1.00     1.00794     H ( 1.00)

      8 Sym. Ops., with inversion, found



   Cartesian axes

     site n.     atom                  positions (alat units)
         1           O   tau(   1) = (   0.0000000   0.4523832   0.8804697  )
         2           O   tau(   2) = (   0.5000000   0.4523832   0.8804697  )
         3           O   tau(   3) = (   0.0000000   0.0000000   0.9930802  )
         4           O   tau(   4) = (   0.5000000   0.0000000   0.9930802  )
         5           Ru  tau(   5) = (   0.2500000   0.0000000   1.1871684  )
         6           Ru  tau(   6) = (   0.7500000   0.0000000   1.1871684  )
         7           O   tau(   7) = (   0.2500000   0.2770530   1.1871684  )
         8           O   tau(   8) = (   0.7500000   0.2770530   1.1871684  )
         9           Ru  tau(   9) = (   0.0000000   0.4523832   1.1871684  )
        10           Ru  tau(  10) = (   0.5000000   0.4523832   1.1871684  )
        11           O   tau(  11) = (   0.2500000   0.6277133   1.1871684  )
        12           O   tau(  12) = (   0.7500000   0.6277133   1.1871684  )
        13           O   tau(  13) = (   0.0000000   0.0000000   1.3812600  )
        14           O   tau(  14) = (   0.5000000   0.0000000   1.3812600  )
        15           O   tau(  15) = (   0.0000000   0.4523832   1.4938705  )
        16           O   tau(  16) = (   0.5000000   0.4523832   1.4938705  )
        17           Ru  tau(  17) = (   0.0000000   0.0000000   1.6879622  )
        18           Ru  tau(  18) = (   0.5000000   0.0000000   1.6879622  )
        19           O   tau(  19) = (   0.2500000   0.1753301   1.6879622  )
        20           O   tau(  20) = (   0.7500000   0.1753301   1.6879622  )
        21           Ru  tau(  21) = (   0.2500000   0.4523832   1.6879622  )
        22           Ru  tau(  22) = (   0.7500000   0.4523832   1.6879622  )
        23           O   tau(  23) = (   0.2500000   0.7294371   1.6879622  )
        24           O   tau(  24) = (   0.7500000   0.7294371   1.6879622  )
        25           O   tau(  25) = (   0.0000000   0.4523832   1.8820504  )
        26           O   tau(  26) = (   0.5000000   0.4523832   1.8820504  )
        27           O   tau(  27) = (   0.0000000   0.0000000   1.9946609  )
        28           O   tau(  28) = (   0.5000000   0.0000000   1.9946609  )
        29           Ru  tau(  29) = (   0.2500000   0.0000000   2.1887525  )
        30           Ru  tau(  30) = (   0.7500000   0.0000000   2.1887525  )
        31           O   tau(  31) = (   0.2500000   0.2770530   2.1887525  )
        32           O   tau(  32) = (   0.7500000   0.2770530   2.1887525  )
        33           Ru  tau(  33) = (   0.0000000   0.4523832   2.1887525  )
        34           Ru  tau(  34) = (   0.5000000   0.4523832   2.1887525  )
        35           O   tau(  35) = (   0.2500000   0.6277133   2.1887525  )
        36           O   tau(  36) = (   0.7500000   0.6277133   2.1887525  )
        37           O   tau(  37) = (   0.0000000   0.0000000   2.3828441  )
        38           O   tau(  38) = (   0.5000000   0.0000000   2.3828441  )
        39           O   tau(  39) = (   0.0000000   0.4523832   2.4954513  )
        40           O   tau(  40) = (   0.5000000   0.4523832   2.4954513  )
        41           H   tau(  41) = (   0.0000000   0.1033388   0.8786804  )
        42           H   tau(  42) = (   0.0000000   0.1033388   2.4972371  )
        43           H   tau(  43) = (   0.5000000   0.1033388   0.8786804  )
        44           H   tau(  44) = (   0.5000000   0.1033388   2.4972371  )
        45           H   tau(  45) = (   0.0000000   0.8014275   0.8786804  )
        46           H   tau(  46) = (   0.0000000   0.8014275   2.4972371  )
        47           H   tau(  47) = (   0.5000000   0.8014275   0.8786804  )
        48           H   tau(  48) = (   0.5000000   0.8014275   2.4972371  )

     number of k points=     1  Marzari-Vanderbilt smearing, width (Ry)=  0.0300
                       cart. coord. in units 2pi/alat
        k(    1) = (   0.2500000   0.2763144   0.0000000), wk =   2.0000000

     Dense  grid:  1096679 G-vectors     FFT dimensions: (  90,  80, 300)

     Smooth grid:   277485 G-vectors     FFT dimensions: (  60,  54, 192)

     Estimated max dynamical RAM per process >     168.29 MB

     Estimated total dynamical RAM >       3.29 GB

     Check: negative core charge=   -0.000001

     Initial potential from superposition of free atoms

     starting charge     367.9933, renormalised to     368.0000

     add environment contribution to local potential
     Polarization accuracy = 6.6E-12, # of iterations =  19

     negative rho (up, down):  3.030E-05 0.000E+00
     Starting wfcs are  240 randomized atomic wfcs
     Checking if some PAW data can be deallocated... 

     total cpu time spent up to now is     2529.5 secs

     per-process dynamical memory:   137.7 Mb

     Self-consistent Calculation

     iteration #  1     ecut=    50.00 Ry     beta= 0.70
     Davidson diagonalization with overlap
     ethr =  1.00E-02,  avg # of iterations =  3.0

     total cpu time spent up to now is     3193.8 secs

     total energy              =   -3434.44822929 Ry
     estimated scf accuracy    <       9.95929981 Ry
     electrostatic embedding   =      -0.00166963 Ry
     cavitation energy         =       0.01896651 Ry
     PV energy                 =      -0.08727924 Ry
     correction to one-el term =     224.68027432 Ry

     iteration #  2     ecut=    50.00 Ry     beta= 0.70
     Davidson diagonalization with overlap
     ethr =  2.71E-03,  avg # of iterations =  2.0

     negative rho (up, down):  2.534E-08 0.000E+00

     total cpu time spent up to now is     3570.0 secs

     total energy              =   -3436.17341670 Ry
     estimated scf accuracy    <      23.07768546 Ry
     electrostatic embedding   =      -0.00287337 Ry
     cavitation energy         =       0.01907921 Ry
     PV energy                 =      -0.08782727 Ry
     correction to one-el term =     224.68336034 Ry

     iteration #  3     ecut=    50.00 Ry     beta= 0.70
     Davidson diagonalization with overlap
     ethr =  2.71E-03,  avg # of iterations =  1.0

     total cpu time spent up to now is     3867.5 secs

     total energy              =   -3436.74982192 Ry
     estimated scf accuracy    <       1.98552599 Ry
     electrostatic embedding   =      -0.00342275 Ry
     cavitation energy         =       0.01885402 Ry
     PV energy                 =      -0.08885733 Ry
     correction to one-el term =     224.68545548 Ry

     iteration #  4     ecut=    50.00 Ry     beta= 0.70
     Davidson diagonalization with overlap
     ethr =  5.40E-04,  avg # of iterations =  1.0

     total cpu time spent up to now is     4145.2 secs

     total energy              =   -3436.92424157 Ry
     estimated scf accuracy    <       2.09011409 Ry
     electrostatic embedding   =      -0.00382180 Ry
     cavitation energy         =       0.01892990 Ry
     PV energy                 =      -0.08874716 Ry
     correction to one-el term =     224.68624277 Ry

     iteration #  5     ecut=    50.00 Ry     beta= 0.70
     Davidson diagonalization with overlap
     ethr =  5.40E-04,  avg # of iterations =  1.0

     total cpu time spent up to now is     4418.6 secs

     total energy              =   -3436.87485016 Ry
     estimated scf accuracy    <       1.73838816 Ry
     electrostatic embedding   =      -0.00424779 Ry
     cavitation energy         =       0.01906258 Ry
     PV energy                 =      -0.08864703 Ry
     correction to one-el term =     224.68714368 Ry

     iteration #  6     ecut=    50.00 Ry     beta= 0.70
     Davidson diagonalization with overlap
     ethr =  4.72E-04,  avg # of iterations =  1.0

     total cpu time spent up to now is     4733.7 secs

     total energy              =   -3436.86912269 Ry
     estimated scf accuracy    <       0.75463102 Ry
     electrostatic embedding   =      -0.00490206 Ry
     cavitation energy         =       0.01946559 Ry
     PV energy                 =      -0.08792627 Ry
     correction to one-el term =     224.68838467 Ry

     iteration #  7     ecut=    50.00 Ry     beta= 0.70
     Davidson diagonalization with overlap
     ethr =  2.05E-04,  avg # of iterations =  9.0

     total cpu time spent up to now is     5031.0 secs

     total energy              =   -3436.86071779 Ry
     estimated scf accuracy    <       0.63170683 Ry
     electrostatic embedding   =      -0.00498527 Ry
     cavitation energy         =       0.01967670 Ry
     PV energy                 =      -0.08708780 Ry
     correction to one-el term =     224.68828103 Ry

     iteration #  8     ecut=    50.00 Ry     beta= 0.70
     Davidson diagonalization with overlap
     ethr =  1.72E-04,  avg # of iterations =  1.0

     total cpu time spent up to now is     5298.4 secs

     total energy              =   -3436.85714427 Ry
     estimated scf accuracy    <       0.34146177 Ry
     electrostatic embedding   =      -0.00498245 Ry
     cavitation energy         =       0.01988566 Ry
     PV energy                 =      -0.08632098 Ry
     correction to one-el term =     224.68802575 Ry

     iteration #  9     ecut=    50.00 Ry     beta= 0.70
     Davidson diagonalization with overlap
     ethr =  9.28E-05,  avg # of iterations =  2.0

     total cpu time spent up to now is     5597.5 secs

     total energy              =   -3436.85216716 Ry
     estimated scf accuracy    <       0.15594127 Ry
     electrostatic embedding   =      -0.00477611 Ry
     cavitation energy         =       0.02022366 Ry
     PV energy                 =      -0.08510706 Ry
     correction to one-el term =     224.68712562 Ry

     iteration # 10     ecut=    50.00 Ry     beta= 0.70
     Davidson diagonalization with overlap
     ethr =  4.24E-05,  avg # of iterations =  9.0

     add environment contribution to local potential
     Polarization accuracy = 3.5E-12, # of iterations =  36

     total cpu time spent up to now is     5857.5 secs

     total energy              =   -3436.85267828 Ry
     estimated scf accuracy    <       0.05055936 Ry
     electrostatic embedding   =      -0.00450977 Ry
     cavitation energy         =       0.02045346 Ry
     PV energy                 =      -0.08450344 Ry
     correction to one-el term =     224.68618755 Ry

     iteration # 11     ecut=    50.00 Ry     beta= 0.70
     Davidson diagonalization with overlap
     ethr =  1.37E-05,  avg # of iterations =  9.0

     total cpu time spent up to now is     6100.8 secs

     total energy              =   -3437.02273802 Ry
     estimated scf accuracy    <       1.40553445 Ry
     electrostatic embedding   =      -0.13100889 Ry
     cavitation energy         =       0.02039839 Ry
     PV energy                 =      -0.08443751 Ry
     correction to one-el term =     166.74845248 Ry

     iteration # 12     ecut=    50.00 Ry     beta= 0.70
     Davidson diagonalization with overlap
     ethr =  1.37E-05,  avg # of iterations =  1.0

     total cpu time spent up to now is     6356.8 secs

     total energy              =   -3437.01840433 Ry
     estimated scf accuracy    <       1.10649995 Ry
     electrostatic embedding   =      -0.13202450 Ry
     cavitation energy         =       0.02044531 Ry
     PV energy                 =      -0.08436469 Ry
     correction to one-el term =     166.75162708 Ry

     iteration # 13     ecut=    50.00 Ry     beta= 0.70
     Davidson diagonalization with overlap
     ethr =  1.37E-05,  avg # of iterations =  1.0

     total cpu time spent up to now is     6633.8 secs

     total energy              =   -3437.00343350 Ry
     estimated scf accuracy    <       1.08938258 Ry
     electrostatic embedding   =      -0.13240484 Ry
     cavitation energy         =       0.02044540 Ry
     PV energy                 =      -0.08436437 Ry
     correction to one-el term =     166.75264031 Ry

     iteration # 14     ecut=    50.00 Ry     beta= 0.70
     Davidson diagonalization with overlap
     ethr =  1.37E-05,  avg # of iterations =  1.0

     total cpu time spent up to now is     6969.9 secs

     total energy              =   -3436.96314973 Ry
     estimated scf accuracy    <       0.73765686 Ry
     electrostatic embedding   =      -0.13372497 Ry
     cavitation energy         =       0.02043709 Ry
     PV energy                 =      -0.08436019 Ry
     correction to one-el term =     166.75596063 Ry

     iteration # 15     ecut=    50.00 Ry     beta= 0.70
     Davidson diagonalization with overlap
     ethr =  1.37E-05,  avg # of iterations =  2.0

     add environment contribution to local potential
     Polarization accuracy = 7.9E-12, # of iterations =  36

     total cpu time spent up to now is     7238.3 secs

     total energy              =   -3436.95988928 Ry
     estimated scf accuracy    <       0.05705744 Ry
     electrostatic embedding   =      -0.14034683 Ry
     cavitation energy         =       0.02054579 Ry
     PV energy                 =      -0.08417258 Ry
     correction to one-el term =     166.77426483 Ry

     iteration # 16     ecut=    50.00 Ry     beta= 0.70
     Davidson diagonalization with overlap
     ethr =  1.37E-05,  avg # of iterations =  2.0

     add environment contribution to local potential
     Polarization accuracy = 8.2E-12, # of iterations =  39

     total cpu time spent up to now is     7519.8 secs

     total energy              =   -3436.98480905 Ry
     estimated scf accuracy    <       0.02934194 Ry
     electrostatic embedding   =      -0.17274580 Ry
     cavitation energy         =       0.02061916 Ry
     PV energy                 =      -0.08405272 Ry
     correction to one-el term =     165.13781206 Ry

     iteration # 17     ecut=    50.00 Ry     beta= 0.70
     Davidson diagonalization with overlap
     ethr =  7.97E-06,  avg # of iterations =  2.0

     negative rho (up, down):  7.653E-07 0.000E+00

     add environment contribution to local potential
     Polarization accuracy = 5.7E-12, # of iterations =  41

     total cpu time spent up to now is     7758.2 secs

     total energy              =   -3436.99027366 Ry
     estimated scf accuracy    <       0.00873912 Ry
     electrostatic embedding   =      -0.18867318 Ry
     cavitation energy         =       0.02070319 Ry
     PV energy                 =      -0.08390925 Ry
     correction to one-el term =     164.15363018 Ry

     iteration # 18     ecut=    50.00 Ry     beta= 0.70
     Davidson diagonalization with overlap
     ethr =  2.37E-06,  avg # of iterations =  9.0

     negative rho (up, down):  7.487E-04 0.000E+00

     total cpu time spent up to now is     8017.7 secs

     total energy              =   -3436.99553871 Ry
     estimated scf accuracy    <       0.10873704 Ry
     electrostatic embedding   =      -0.20502356 Ry
     cavitation energy         =       0.02075078 Ry
     PV energy                 =      -0.08381771 Ry
     correction to one-el term =     163.36934232 Ry

     iteration # 19     ecut=    50.00 Ry     beta= 0.70
     Davidson diagonalization with overlap
     ethr =  2.37E-06,  avg # of iterations =  2.0

     total cpu time spent up to now is     8283.0 secs

     total energy              =   -3436.97193779 Ry
     estimated scf accuracy    <       0.21651409 Ry
     electrostatic embedding   =      -0.20867698 Ry
     cavitation energy         =       0.02078346 Ry
     PV energy                 =      -0.08374236 Ry
     correction to one-el term =     163.38187340 Ry

     iteration # 20     ecut=    50.00 Ry     beta= 0.70
     Davidson diagonalization with overlap
     ethr =  2.37E-06,  avg # of iterations =  6.0

     add environment contribution to local potential
     Polarization accuracy = 7.0E-12, # of iterations =  37

     total cpu time spent up to now is     8533.1 secs

     total energy              =   -3436.99214472 Ry
     estimated scf accuracy    <       0.00541390 Ry
     electrostatic embedding   =      -0.20237355 Ry
     cavitation energy         =       0.02066420 Ry
     PV energy                 =      -0.08397187 Ry
     correction to one-el term =     163.36338053 Ry

     iteration # 21     ecut=    50.00 Ry     beta= 0.70
     Davidson diagonalization with overlap
     ethr =  1.47E-06,  avg # of iterations =  2.0

     add environment contribution to local potential
     Polarization accuracy = 9.4E-12, # of iterations =  37

     total cpu time spent up to now is     8790.1 secs

     total energy              =   -3436.98895801 Ry
     estimated scf accuracy    <       0.00313324 Ry
     electrostatic embedding   =      -0.19576328 Ry
     cavitation energy         =       0.02064744 Ry
     PV energy                 =      -0.08400218 Ry
     correction to one-el term =     163.81600432 Ry

     iteration # 22     ecut=    50.00 Ry     beta= 0.70
     Davidson diagonalization with overlap
     ethr =  8.51E-07,  avg # of iterations =  1.0

     add environment contribution to local potential
     Polarization accuracy = 5.5E-12, # of iterations =  37

     total cpu time spent up to now is     9088.0 secs

     total energy              =   -3436.98904906 Ry
     estimated scf accuracy    <       0.00159690 Ry
     electrostatic embedding   =      -0.19359413 Ry
     cavitation energy         =       0.02062606 Ry
     PV energy                 =      -0.08402293 Ry
     correction to one-el term =     163.97034843 Ry

     iteration # 23     ecut=    50.00 Ry     beta= 0.70
     Davidson diagonalization with overlap
     ethr =  4.34E-07,  avg # of iterations =  3.0

     negative rho (up, down):  9.420E-04 0.000E+00

     add environment contribution to local potential
     Polarization accuracy = 1.7E-12, # of iterations =  36

     total cpu time spent up to now is     9341.0 secs

     total energy              =   -3436.98934081 Ry
     estimated scf accuracy    <       0.00572607 Ry
     electrostatic embedding   =      -0.19104603 Ry
     cavitation energy         =       0.02055246 Ry
     PV energy                 =      -0.08408239 Ry
     correction to one-el term =     164.39545042 Ry

     iteration # 24     ecut=    50.00 Ry     beta= 0.70
     Davidson diagonalization with overlap
     ethr =  4.34E-07,  avg # of iterations = 10.0

     add environment contribution to local potential
     Polarization accuracy = 4.9E-12, # of iterations =  37

     total cpu time spent up to now is     9625.3 secs

     total energy              =   -3436.98903992 Ry
     estimated scf accuracy    <       0.00475063 Ry
     electrostatic embedding   =      -0.19184129 Ry
     cavitation energy         =       0.02050297 Ry
     PV energy                 =      -0.08408961 Ry
     correction to one-el term =     164.70742729 Ry

     iteration # 25     ecut=    50.00 Ry     beta= 0.70
     Davidson diagonalization with overlap
     ethr =  4.34E-07,  avg # of iterations =  2.0

     negative rho (up, down):  2.101E-08 0.000E+00

     add environment contribution to local potential
     Polarization accuracy = 3.4E-12, # of iterations =  37

     total cpu time spent up to now is     9909.6 secs

     total energy              =   -3436.98916949 Ry
     estimated scf accuracy    <       0.00028308 Ry
     electrostatic embedding   =      -0.19207175 Ry
     cavitation energy         =       0.02053979 Ry
     PV energy                 =      -0.08405327 Ry
     correction to one-el term =     164.79979656 Ry

     iteration # 26     ecut=    50.00 Ry     beta= 0.70
     Davidson diagonalization with overlap
     ethr =  7.69E-08,  avg # of iterations =  2.0

     negative rho (up, down):  8.930E-06 0.000E+00

     add environment contribution to local potential
     Polarization accuracy = 2.9E-12, # of iterations =  36

     total cpu time spent up to now is    10161.6 secs

     total energy              =   -3436.98920792 Ry
     estimated scf accuracy    <       0.00021729 Ry
     electrostatic embedding   =      -0.19160589 Ry
     cavitation energy         =       0.02054852 Ry
     PV energy                 =      -0.08404009 Ry
     correction to one-el term =     165.01539935 Ry

     iteration # 27     ecut=    50.00 Ry     beta= 0.70
     Davidson diagonalization with overlap
     ethr =  5.90E-08,  avg # of iterations =  3.0

     negative rho (up, down):  3.049E-05 0.000E+00

     add environment contribution to local potential
     Polarization accuracy = 7.3E-12, # of iterations =  36

     total cpu time spent up to now is    10450.9 secs

     total energy              =   -3436.98921201 Ry
     estimated scf accuracy    <       0.00011414 Ry
     electrostatic embedding   =      -0.19051790 Ry
     cavitation energy         =       0.02054198 Ry
     PV energy                 =      -0.08404567 Ry
     correction to one-el term =     165.19592506 Ry

     iteration # 28     ecut=    50.00 Ry     beta= 0.70
     Davidson diagonalization with overlap
     ethr =  3.10E-08,  avg # of iterations =  2.0

     negative rho (up, down):  6.386E-05 0.000E+00

     add environment contribution to local potential
     Polarization accuracy = 4.1E-12, # of iterations =  37

     total cpu time spent up to now is    10774.9 secs

     total energy              =   -3436.98920211 Ry
     estimated scf accuracy    <       0.00004491 Ry
     electrostatic embedding   =      -0.18942677 Ry
     cavitation energy         =       0.02053962 Ry
     PV energy                 =      -0.08404950 Ry
     correction to one-el term =     165.33413799 Ry

     iteration # 29     ecut=    50.00 Ry     beta= 0.70
     Davidson diagonalization with overlap
     ethr =  1.22E-08,  avg # of iterations =  2.0

     negative rho (up, down):  9.910E-05 0.000E+00

     add environment contribution to local potential
     Polarization accuracy = 3.4E-12, # of iterations =  36

     total cpu time spent up to now is    11061.7 secs

     total energy              =   -3436.98919505 Ry
     estimated scf accuracy    <       0.00000388 Ry
     electrostatic embedding   =      -0.18802338 Ry
     cavitation energy         =       0.02053560 Ry
     PV energy                 =      -0.08405568 Ry
     correction to one-el term =     165.48612652 Ry

     iteration # 30     ecut=    50.00 Ry     beta= 0.70
     Davidson diagonalization with overlap
     ethr =  1.06E-09,  avg # of iterations =  2.0

     negative rho (up, down):  8.533E-05 0.000E+00

     add environment contribution to local potential
     Polarization accuracy = 3.3E-12, # of iterations =  37

     total cpu time spent up to now is    11358.9 secs

     total energy              =   -3436.98919212 Ry
     estimated scf accuracy    <       0.00000062 Ry
     electrostatic embedding   =      -0.18778874 Ry
     cavitation energy         =       0.02053480 Ry
     PV energy                 =      -0.08405592 Ry
     correction to one-el term =     165.52627620 Ry

     iteration # 31     ecut=    50.00 Ry     beta= 0.70
     Davidson diagonalization with overlap
     ethr =  1.68E-10,  avg # of iterations =  4.0

     negative rho (up, down):  7.719E-05 0.000E+00

     add environment contribution to local potential
     Polarization accuracy = 3.2E-12, # of iterations =  37

     total cpu time spent up to now is    11616.5 secs

     total energy              =   -3436.98919064 Ry
     estimated scf accuracy    <       0.00000029 Ry
     electrostatic embedding   =      -0.18768589 Ry
     cavitation energy         =       0.02053466 Ry
     PV energy                 =      -0.08405627 Ry
     correction to one-el term =     165.54039739 Ry

     iteration # 32     ecut=    50.00 Ry     beta= 0.70
     Davidson diagonalization with overlap
     ethr =  7.91E-11,  avg # of iterations =  2.0

     negative rho (up, down):  7.548E-05 0.000E+00

     add environment contribution to local potential
     Polarization accuracy = 3.2E-12, # of iterations =  37

     total cpu time spent up to now is    11853.7 secs

     total energy              =   -3436.98919004 Ry
     estimated scf accuracy    <       0.00000017 Ry
     electrostatic embedding   =      -0.18761431 Ry
     cavitation energy         =       0.02053451 Ry
     PV energy                 =      -0.08405711 Ry
     correction to one-el term =     165.54677648 Ry

     iteration # 33     ecut=    50.00 Ry     beta= 0.70
     Davidson diagonalization with overlap
     ethr =  4.62E-11,  avg # of iterations =  2.0

     negative rho (up, down):  7.979E-05 0.000E+00

     add environment contribution to local potential
     Polarization accuracy = 6.0E-12, # of iterations =  35

     total cpu time spent up to now is    12118.8 secs

     total energy              =   -3436.98918903 Ry
     estimated scf accuracy    <       0.00000007 Ry
     electrostatic embedding   =      -0.18751533 Ry
     cavitation energy         =       0.02053427 Ry
     PV energy                 =      -0.08405792 Ry
     correction to one-el term =     165.55922140 Ry

     iteration # 34     ecut=    50.00 Ry     beta= 0.70
     Davidson diagonalization with overlap
     ethr =  2.03E-11,  avg # of iterations =  2.0

     negative rho (up, down):  8.022E-05 0.000E+00

     add environment contribution to local potential
     Polarization accuracy = 3.1E-12, # of iterations =  37

     total cpu time spent up to now is    12412.8 secs

     total energy              =   -3436.98918992 Ry
     estimated scf accuracy    <       0.00000008 Ry
     electrostatic embedding   =      -0.18754044 Ry
     cavitation energy         =       0.02053413 Ry
     PV energy                 =      -0.08405847 Ry
     correction to one-el term =     165.55642656 Ry

     iteration # 35     ecut=    50.00 Ry     beta= 0.70
     Davidson diagonalization with overlap
     ethr =  2.03E-11,  avg # of iterations =  2.0

     negative rho (up, down):  8.351E-05 0.000E+00

     add environment contribution to local potential
     Polarization accuracy = 5.2E-12, # of iterations =  36

     total cpu time spent up to now is    12681.5 secs

     total energy              =   -3436.98919052 Ry
     estimated scf accuracy    <       0.00000007 Ry
     electrostatic embedding   =      -0.18755121 Ry
     cavitation energy         =       0.02053407 Ry
     PV energy                 =      -0.08405887 Ry
     correction to one-el term =     165.55519590 Ry

     iteration # 36     ecut=    50.00 Ry     beta= 0.70
     Davidson diagonalization with overlap
     ethr =  1.86E-11,  avg # of iterations =  1.0

     negative rho (up, down):  8.899E-05 0.000E+00

     add environment contribution to local potential
     Polarization accuracy = 3.0E-12, # of iterations =  37

     total cpu time spent up to now is    12989.6 secs

     total energy              =   -3436.98919109 Ry
     estimated scf accuracy    <       0.00000006 Ry
     electrostatic embedding   =      -0.18754032 Ry
     cavitation energy         =       0.02053392 Ry
     PV energy                 =      -0.08405943 Ry
     correction to one-el term =     165.55707049 Ry

     iteration # 37     ecut=    50.00 Ry     beta= 0.70
     Davidson diagonalization with overlap
     ethr =  1.75E-11,  avg # of iterations =  1.0

     negative rho (up, down):  9.267E-05 0.000E+00

     add environment contribution to local potential
     Polarization accuracy = 5.2E-12, # of iterations =  35

     total cpu time spent up to now is    13298.1 secs

     total energy              =   -3436.98919171 Ry
     estimated scf accuracy    <       0.00000006 Ry
     electrostatic embedding   =      -0.18753452 Ry
     cavitation energy         =       0.02053378 Ry
     PV energy                 =      -0.08405961 Ry
     correction to one-el term =     165.55847289 Ry

     iteration # 38     ecut=    50.00 Ry     beta= 0.70
     Davidson diagonalization with overlap
     ethr =  1.62E-11,  avg # of iterations =  2.0

     negative rho (up, down):  9.337E-05 0.000E+00

     add environment contribution to local potential
     Polarization accuracy = 4.9E-12, # of iterations =  35

     total cpu time spent up to now is    13583.1 secs

     total energy              =   -3436.98919414 Ry
     estimated scf accuracy    <       0.00000006 Ry
     electrostatic embedding   =      -0.18757957 Ry
     cavitation energy         =       0.02053367 Ry
     PV energy                 =      -0.08405976 Ry
     correction to one-el term =     165.55315993 Ry

     iteration # 39     ecut=    50.00 Ry     beta= 0.70
     Davidson diagonalization with overlap
     ethr =  1.62E-11,  avg # of iterations =  2.0

     negative rho (up, down):  9.971E-05 0.000E+00

     add environment contribution to local potential
     Polarization accuracy = 8.0E-12, # of iterations =  35

     total cpu time spent up to now is    13885.8 secs

     total energy              =   -3436.98919518 Ry
     estimated scf accuracy    <       0.00000006 Ry
     electrostatic embedding   =      -0.18753708 Ry
     cavitation energy         =       0.02053349 Ry
     PV energy                 =      -0.08406006 Ry
     correction to one-el term =     165.55881295 Ry

     iteration # 40     ecut=    50.00 Ry     beta= 0.70
     Davidson diagonalization with overlap
     ethr =  1.62E-11,  avg # of iterations =  2.0

     negative rho (up, down):  1.021E-04 0.000E+00

     add environment contribution to local potential
     Polarization accuracy = 2.2E-12, # of iterations =  37

     total cpu time spent up to now is    14182.6 secs

     total energy              =   -3436.98919957 Ry
     estimated scf accuracy    <       0.00000005 Ry
     electrostatic embedding   =      -0.18755160 Ry
     cavitation energy         =       0.02053325 Ry
     PV energy                 =      -0.08405997 Ry
     correction to one-el term =     165.55792881 Ry

     iteration # 41     ecut=    50.00 Ry     beta= 0.70
     Davidson diagonalization with overlap
     ethr =  1.40E-11,  avg # of iterations =  2.0

     negative rho (up, down):  9.851E-05 0.000E+00

     add environment contribution to local potential
     Polarization accuracy = 1.8E-12, # of iterations =  37

     total cpu time spent up to now is    14489.1 secs

     total energy              =   -3436.98920506 Ry
     estimated scf accuracy    <       0.00000003 Ry
     electrostatic embedding   =      -0.18756699 Ry
     cavitation energy         =       0.02053317 Ry
     PV energy                 =      -0.08405937 Ry
     correction to one-el term =     165.55644541 Ry

     iteration # 42     ecut=    50.00 Ry     beta= 0.70
     Davidson diagonalization with overlap
     ethr =  8.20E-12,  avg # of iterations =  5.0

     negative rho (up, down):  9.101E-05 0.000E+00

     add environment contribution to local potential
     Polarization accuracy = 1.0E-12, # of iterations =  37

     total cpu time spent up to now is    14745.0 secs

     total energy              =   -3436.98920758 Ry
     estimated scf accuracy    <       0.00000002 Ry
     electrostatic embedding   =      -0.18755668 Ry
     cavitation energy         =       0.02053322 Ry
     PV energy                 =      -0.08405933 Ry
     correction to one-el term =     165.55753450 Ry

     iteration # 43     ecut=    50.00 Ry     beta= 0.70
     Davidson diagonalization with overlap
     ethr =  4.97E-12,  avg # of iterations =  4.0

     negative rho (up, down):  9.552E-05 0.000E+00

     add environment contribution to local potential
     Polarization accuracy = 3.0E-12, # of iterations =  35

     total cpu time spent up to now is    15023.3 secs

     total energy              =   -3436.98921500 Ry
     estimated scf accuracy    <       0.00000003 Ry
     electrostatic embedding   =      -0.18752683 Ry
     cavitation energy         =       0.02053342 Ry
     PV energy                 =      -0.08405870 Ry
     correction to one-el term =     165.56034213 Ry

     iteration # 44     ecut=    50.00 Ry     beta= 0.70
     Davidson diagonalization with overlap
     ethr =  4.97E-12,  avg # of iterations =  2.0

     negative rho (up, down):  9.171E-05 0.000E+00

     add environment contribution to local potential
     Polarization accuracy = 8.7E-12, # of iterations =  36

     total cpu time spent up to now is    15303.2 secs

     total energy              =   -3436.98921434 Ry
     estimated scf accuracy    <       0.00000002 Ry
     electrostatic embedding   =      -0.18753305 Ry
     cavitation energy         =       0.02053333 Ry
     PV energy                 =      -0.08405907 Ry
     correction to one-el term =     165.56012012 Ry

     iteration # 45     ecut=    50.00 Ry     beta= 0.70
     Davidson diagonalization with overlap
     ethr =  4.86E-12,  avg # of iterations =  2.0

     negative rho (up, down):  8.874E-05 0.000E+00

     add environment contribution to local potential
     Polarization accuracy = 9.7E-12, # of iterations =  36

     total cpu time spent up to now is    15591.2 secs

     total energy              =   -3436.98921686 Ry
     estimated scf accuracy    <          7.6E-09 Ry
     electrostatic embedding   =      -0.18752850 Ry
     cavitation energy         =       0.02053350 Ry
     PV energy                 =      -0.08405895 Ry
     correction to one-el term =     165.56008404 Ry

     iteration # 46     ecut=    50.00 Ry     beta= 0.70
     Davidson diagonalization with overlap
     ethr =  2.07E-12,  avg # of iterations =  2.0

     negative rho (up, down):  8.919E-05 0.000E+00

     add environment contribution to local potential
     Polarization accuracy = 9.1E-12, # of iterations =  35

     total cpu time spent up to now is    15862.4 secs

     total energy              =   -3436.98921914 Ry
     estimated scf accuracy    <          5.8E-09 Ry
     electrostatic embedding   =      -0.18752925 Ry
     cavitation energy         =       0.02053371 Ry
     PV energy                 =      -0.08405906 Ry
     correction to one-el term =     165.55932354 Ry

     iteration # 47     ecut=    50.00 Ry     beta= 0.70
     Davidson diagonalization with overlap
     ethr =  1.57E-12,  avg # of iterations =  2.0

     negative rho (up, down):  8.888E-05 0.000E+00

     add environment contribution to local potential
     Polarization accuracy = 8.9E-12, # of iterations =  35

     total cpu time spent up to now is    16175.6 secs

     total energy              =   -3436.98921872 Ry
     estimated scf accuracy    <          2.4E-09 Ry
     electrostatic embedding   =      -0.18753374 Ry
     cavitation energy         =       0.02053373 Ry
     PV energy                 =      -0.08405919 Ry
     correction to one-el term =     165.55872446 Ry

     iteration # 48     ecut=    50.00 Ry     beta= 0.70
     Davidson diagonalization with overlap
     ethr =  6.50E-13,  avg # of iterations =  5.0

     negative rho (up, down):  8.856E-05 0.000E+00

     add environment contribution to local potential
     Polarization accuracy = 9.8E-12, # of iterations =  36

     total cpu time spent up to now is    16389.4 secs

     total energy              =   -3436.98921976 Ry
     estimated scf accuracy    <          4.1E-10 Ry
     electrostatic embedding   =      -0.18754102 Ry
     cavitation energy         =       0.02053379 Ry
     PV energy                 =      -0.08405929 Ry
     correction to one-el term =     165.55767176 Ry

     iteration # 49     ecut=    50.00 Ry     beta= 0.70
     Davidson diagonalization with overlap
     ethr =  1.11E-13,  avg # of iterations =  2.0

     negative rho (up, down):  8.828E-05 0.000E+00

     add environment contribution to local potential
     Polarization accuracy = 8.6E-12, # of iterations =  35

     total cpu time spent up to now is    16564.1 secs

     total energy              =   -3436.98921992 Ry
     estimated scf accuracy    <          6.6E-10 Ry
     electrostatic embedding   =      -0.18754414 Ry
     cavitation energy         =       0.02053379 Ry
     PV energy                 =      -0.08405928 Ry
     correction to one-el term =     165.55727274 Ry

     iteration # 50     ecut=    50.00 Ry     beta= 0.70
     Davidson diagonalization with overlap
     ethr =  1.11E-13,  avg # of iterations =  2.0

     negative rho (up, down):  8.755E-05 0.000E+00

     the potential shift due to the Gaussian-smeared nuclei is    -1.3540 ev

     total cpu time spent up to now is    16835.6 secs

     End of self-consistent calculation

          k = 0.2500 0.2763 0.0000 ( 34692 PWs)   bands (ev):

   -75.8588 -75.8550 -75.8463 -75.8425 -75.7454 -75.7420 -75.7331 -75.7297
   -75.7110 -75.7077 -75.5885 -75.5848 -46.2212 -46.2167 -46.1460 -46.1439
   -46.1337 -46.1315 -46.0412 -46.0365 -46.0286 -46.0239 -45.9258 -45.9132
   -45.8489 -45.8363 -45.7377 -45.7324 -45.6867 -45.6774 -45.6745 -45.6662
   -45.6648 -45.6539 -45.6138 -45.6073 -45.6016 -45.5541 -45.5537 -45.5419
   -45.5416 -45.5294 -45.5272 -45.4863 -45.4840 -45.4755 -45.4337 -45.4209
   -25.9669 -25.9491 -25.8980 -25.8802 -22.3151 -22.2569 -22.1395 -21.9326
   -21.9140 -21.8002 -21.1613 -21.1474 -21.1324 -21.0485 -21.0479 -20.9668
   -20.9067 -20.8648 -20.7497 -20.6725 -20.6468 -20.5709 -20.4929 -20.3036
   -18.7578 -18.7388 -18.6675 -18.6504 -12.4141 -12.3574 -12.1838 -12.1669
   -12.1590 -12.1418 -12.1123 -12.0960 -10.5094 -10.4969 -10.4207 -10.0276
   -10.0084  -9.8601  -9.7750  -9.7430  -9.6946  -9.6720  -9.3999  -9.3725
    -9.3655  -9.2798  -9.1381  -9.1240  -9.1075  -8.9682  -8.7507  -8.7423
    -8.5655  -8.5310  -8.4243  -8.4198  -8.3355  -8.1368  -8.0684  -8.0446
    -7.8053  -7.6594  -7.6571  -7.6018  -7.5711  -7.3267  -7.2701  -7.2079
    -7.1421  -7.1183  -7.0225  -7.0112  -6.8801  -6.8619  -6.7728  -6.7123
    -6.7086  -6.5433  -6.5409  -6.5295  -6.4963  -6.4187  -6.3645  -6.3211
    -6.2351  -6.1117  -5.9675  -5.8076  -5.6171  -5.5315  -5.3713  -5.2363
    -5.2348  -5.2143  -5.1321  -5.0040  -4.9854  -4.8268  -4.7307  -4.6109
    -4.5546  -4.4072  -4.3487  -4.2110  -4.0679  -4.0371  -4.0262  -3.9886
    -3.6487  -3.4288  -3.3361  -3.2441  -3.2239  -3.2060  -3.1514  -3.0496
    -3.0332  -3.0277  -3.0239  -2.8646  -2.8584  -2.8388  -2.8140  -2.7847
    -2.7621  -2.7253  -2.6864  -2.6751  -2.6157  -2.6029  -2.3398  -2.3077
    -2.2945  -2.2760  -2.0876  -2.0524  -1.8370  -1.6675  -1.5238  -1.4432
    -1.2604  -1.2349  -1.1033  -1.0594  -1.0492  -0.6902  -0.3665  -0.1576
    -0.1033  -0.0650   0.0794   0.0798   0.2332   0.6440   1.0027   1.0465
     1.0771   1.3221   1.4423   1.5647   1.5784   1.6037   1.6878   1.7316
     1.8828   2.0374   2.2650   2.2886   2.5222

     the Fermi energy is    -2.3433 ev

!    total energy              =   -3436.98921984 Ry
     estimated scf accuracy    <          7.4E-11 Ry
     smearing contrib. (-TS)   =       0.06699070 Ry
     internal energy E=F+TS    =   -3437.05621054 Ry

     The total energy is F=E-TS. E is the sum of the following terms:
     one-electron contribution =  -24274.26622000 Ry
     hartree contribution      =   12141.29072966 Ry
     xc contribution           =    -449.14364674 Ry
     ewald contribution        =    9246.29461287 Ry
     one-center paw contrib.   =    -266.53761736 Ry
     electrostatic embedding   =      -0.18754591 Ry
     cavitation energy         =       0.02053381 Ry
     PV energy                 =      -0.08405929 Ry
     correction to one-el term =     165.55700242 Ry

     WARNING: you are using the parabolic pbc correction;
              the potential shift above must be added to 
              band and Fermi energies.

     convergence has been achieved in  50 iterations

     negative rho (up, down):  8.755E-05 0.000E+00

     Forces acting on atoms (cartesian axes, Ry/au):

     atom    1 type  1   force =     0.00000000    0.00000000    0.10829022
     atom    2 type  1   force =     0.00000000    0.00000000    0.10829060
     atom    3 type  1   force =     0.00000000    0.00000000   -0.16328329
     atom    4 type  1   force =     0.00000000    0.00000000   -0.16328368
     atom    5 type  2   force =    -0.00000005    0.00000000    0.14077764
     atom    6 type  2   force =     0.00000005    0.00000000    0.14077764
     atom    7 type  1   force =    -0.00000011    0.05758105    0.00665770
     atom    8 type  1   force =     0.00000011    0.05758105    0.00665770
     atom    9 type  2   force =     0.00000000    0.00000000   -0.11720325
     atom   10 type  2   force =     0.00000000    0.00000000   -0.11720334
     atom   11 type  1   force =    -0.00000011   -0.05758105    0.00665770
     atom   12 type  1   force =     0.00000011   -0.05758105    0.00665770
     atom   13 type  1   force =     0.00000000    0.00000000   -0.01907501
     atom   14 type  1   force =     0.00000000    0.00000000   -0.01907542
     atom   15 type  1   force =     0.00000000    0.00000000    0.00352803
     atom   16 type  1   force =     0.00000000    0.00000000    0.00352816
     atom   17 type  2   force =     0.00000000    0.00000000    0.00000000
     atom   18 type  2   force =     0.00000000    0.00000000    0.00000000
     atom   19 type  1   force =    -0.00000036   -0.07088455    0.00000000
     atom   20 type  1   force =     0.00000036   -0.07088455    0.00000000
     atom   21 type  2   force =    -0.00000003    0.00000000    0.00000000
     atom   22 type  2   force =     0.00000003    0.00000000    0.00000000
     atom   23 type  1   force =    -0.00000036    0.07088455    0.00000000
     atom   24 type  1   force =     0.00000036    0.07088455    0.00000000
     atom   25 type  1   force =     0.00000000    0.00000000   -0.00352803
     atom   26 type  1   force =     0.00000000    0.00000000   -0.00352816
     atom   27 type  1   force =     0.00000000    0.00000000    0.01907501
     atom   28 type  1   force =     0.00000000    0.00000000    0.01907542
     atom   29 type  2   force =    -0.00000005    0.00000000   -0.14077764
     atom   30 type  2   force =     0.00000005    0.00000000   -0.14077764
     atom   31 type  1   force =    -0.00000011    0.05758105   -0.00665770
     atom   32 type  1   force =     0.00000011    0.05758105   -0.00665770
     atom   33 type  2   force =     0.00000000    0.00000000    0.11720325
     atom   34 type  2   force =     0.00000000    0.00000000    0.11720334
     atom   35 type  1   force =    -0.00000011   -0.05758105   -0.00665770
     atom   36 type  1   force =     0.00000011   -0.05758105   -0.00665770
     atom   37 type  1   force =     0.00000000    0.00000000    0.16328329
     atom   38 type  1   force =     0.00000000    0.00000000    0.16328368
     atom   39 type  1   force =     0.00000000    0.00000000   -0.10829022
     atom   40 type  1   force =     0.00000000    0.00000000   -0.10829060
     atom   41 type  3   force =     0.00000000    0.05427881    0.05056882
     atom   42 type  3   force =     0.00000000    0.05427881   -0.05056882
     atom   43 type  3   force =     0.00000000    0.05427908    0.05056878
     atom   44 type  3   force =     0.00000000    0.05427908   -0.05056878
     atom   45 type  3   force =     0.00000000   -0.05427881    0.05056882
     atom   46 type  3   force =     0.00000000   -0.05427881   -0.05056882
     atom   47 type  3   force =     0.00000000   -0.05427908    0.05056878
     atom   48 type  3   force =     0.00000000   -0.05427908   -0.05056878
     The non-local contrib.  to forces
     atom    1 type  1   force =     0.00000000    0.00000000    0.90371891
     atom    2 type  1   force =     0.00000000    0.00000000    0.90371926
     atom    3 type  1   force =     0.00000000    0.00000000   -1.73623877
     atom    4 type  1   force =     0.00000000    0.00000000   -1.73624023
     atom    5 type  2   force =     0.00000012    0.00000000   -0.01773955
     atom    6 type  2   force =    -0.00000012   -0.00000000   -0.01773955
     atom    7 type  1   force =     0.00000003   -0.09347482   -0.01256095
     atom    8 type  1   force =    -0.00000003   -0.09347482   -0.01256095
     atom    9 type  2   force =     0.00000000    0.00000000    0.01805904
     atom   10 type  2   force =     0.00000000    0.00000000    0.01805883
     atom   11 type  1   force =     0.00000003    0.09347482   -0.01256095
     atom   12 type  1   force =    -0.00000003    0.09347482   -0.01256095
     atom   13 type  1   force =     0.00000000    0.00000000   -0.14398367
     atom   14 type  1   force =     0.00000000    0.00000000   -0.14398375
     atom   15 type  1   force =     0.00000000    0.00000000    0.06220039
     atom   16 type  1   force =     0.00000000    0.00000000    0.06220053
     atom   17 type  2   force =     0.00000000    0.00000000    0.00000000
     atom   18 type  2   force =     0.00000000    0.00000000    0.00000000
     atom   19 type  1   force =    -0.00000014    0.06303002    0.00000000
     atom   20 type  1   force =     0.00000014    0.06303002    0.00000000
     atom   21 type  2   force =     0.00000004    0.00000000    0.00000000
     atom   22 type  2   force =    -0.00000004    0.00000000    0.00000000
     atom   23 type  1   force =    -0.00000014   -0.06303002    0.00000000
     atom   24 type  1   force =     0.00000014   -0.06303002    0.00000000
     atom   25 type  1   force =     0.00000000    0.00000000   -0.06220039
     atom   26 type  1   force =     0.00000000    0.00000000   -0.06220053
     atom   27 type  1   force =     0.00000000    0.00000000    0.14398367
     atom   28 type  1   force =     0.00000000    0.00000000    0.14398375
     atom   29 type  2   force =     0.00000012   -0.00000000    0.01773955
     atom   30 type  2   force =    -0.00000012    0.00000000    0.01773955
     atom   31 type  1   force =     0.00000003   -0.09347482    0.01256095
     atom   32 type  1   force =    -0.00000003   -0.09347482    0.01256095
     atom   33 type  2   force =     0.00000000    0.00000000   -0.01805904
     atom   34 type  2   force =     0.00000000    0.00000000   -0.01805883
     atom   35 type  1   force =     0.00000003    0.09347482    0.01256095
     atom   36 type  1   force =    -0.00000003    0.09347482    0.01256095
     atom   37 type  1   force =     0.00000000    0.00000000    1.73623877
     atom   38 type  1   force =     0.00000000    0.00000000    1.73624023
     atom   39 type  1   force =     0.00000000    0.00000000   -0.90371891
     atom   40 type  1   force =     0.00000000    0.00000000   -0.90371926
     atom   41 type  3   force =     0.00000000   -0.06485062    0.07426344
     atom   42 type  3   force =     0.00000000   -0.06485062   -0.07426344
     atom   43 type  3   force =     0.00000000   -0.06485062    0.07426337
     atom   44 type  3   force =     0.00000000   -0.06485062   -0.07426337
     atom   45 type  3   force =     0.00000000    0.06485062    0.07426344
     atom   46 type  3   force =     0.00000000    0.06485062   -0.07426344
     atom   47 type  3   force =     0.00000000    0.06485062    0.07426337
     atom   48 type  3   force =     0.00000000    0.06485062   -0.07426337
     The ionic contribution  to forces
     atom    1 type  1   force =    -0.00000000    0.00000011  -94.22003543
     atom    2 type  1   force =     0.00000000    0.00000011  -94.22003543
     atom    3 type  1   force =    -0.00000000   -0.00000022  -87.62009173
     atom    4 type  1   force =     0.00000000   -0.00000022  -87.62009173
     atom    5 type  2   force =    -0.00000000   -0.00000201 -166.21009862
     atom    6 type  2   force =    -0.00000000   -0.00000201 -166.21009862
     atom    7 type  1   force =    -0.00000000    1.22838187  -62.50378262
     atom    8 type  1   force =    -0.00000000    1.22838187  -62.50378262
     atom    9 type  2   force =     0.00000000    0.00000254 -166.38210576
     atom   10 type  2   force =    -0.00000000    0.00000254 -166.38210576
     atom   11 type  1   force =     0.00000000   -1.22838144  -62.50378071
     atom   12 type  1   force =     0.00000000   -1.22838144  -62.50378071
     atom   13 type  1   force =     0.00000000   -0.00000169  -36.45628725
     atom   14 type  1   force =    -0.00000000   -0.00000169  -36.45628725
     atom   15 type  1   force =     0.00000000    0.00000878  -25.84569092
     atom   16 type  1   force =     0.00000000    0.00000878  -25.84569092
     atom   17 type  2   force =     0.00000000    0.00001249   -0.00043998
     atom   18 type  2   force =    -0.00000000    0.00001249   -0.00043998
     atom   19 type  1   force =    -0.00000000   -1.02769132   -0.00008664
     atom   20 type  1   force =    -0.00000000   -1.02769132   -0.00008664
     atom   21 type  2   force =     0.00000000    0.00012240   -0.00027102
     atom   22 type  2   force =     0.00000000    0.00012240   -0.00027102
     atom   23 type  1   force =     0.00000000    1.02754060   -0.00008664
     atom   24 type  1   force =     0.00000000    1.02754060   -0.00008664
     atom   25 type  1   force =    -0.00000000    0.00000878   25.84551416
     atom   26 type  1   force =     0.00000000    0.00000878   25.84551416
     atom   27 type  1   force =     0.00000000   -0.00000169   36.45655944
     atom   28 type  1   force =     0.00000000   -0.00000169   36.45655944
     atom   29 type  2   force =    -0.00000000   -0.00000201  166.21036117
     atom   30 type  2   force =     0.00000000   -0.00000201  166.21036117
     atom   31 type  1   force =    -0.00000000    1.22835841   62.50385175
     atom   32 type  1   force =    -0.00000000    1.22835841   62.50385175
     atom   33 type  2   force =    -0.00000000    0.00000254  166.38226695
     atom   34 type  2   force =    -0.00000000    0.00000254  166.38226695
     atom   35 type  1   force =     0.00000000   -1.22835798   62.50384984
     atom   36 type  1   force =    -0.00000000   -1.22835798   62.50384984
     atom   37 type  1   force =    -0.00000000   -0.00000022   87.61997259
     atom   38 type  1   force =     0.00000000   -0.00000022   87.61997259
     atom   39 type  1   force =     0.00000000    0.00000011   94.22011143
     atom   40 type  1   force =    -0.00000000    0.00000011   94.22011143
     atom   41 type  3   force =     0.00000000    2.01141597  -17.20978969
     atom   42 type  3   force =     0.00000000    2.01163167   17.20992469
     atom   43 type  3   force =     0.00000000    2.01141597  -17.20978969
     atom   44 type  3   force =     0.00000000    2.01163167   17.20992469
     atom   45 type  3   force =    -0.00000000   -2.01141600  -17.20978967
     atom   46 type  3   force =     0.00000000   -2.01163170   17.20992466
     atom   47 type  3   force =    -0.00000000   -2.01141600  -17.20978967
     atom   48 type  3   force =     0.00000000   -2.01163170   17.20992466
     The local contribution  to forces
     atom    1 type  1   force =    -0.00000000    0.00000000   93.25746940
     atom    2 type  1   force =     0.00000000    0.00000000   93.25747115
     atom    3 type  1   force =    -0.00000000    0.00000000   89.31249451
     atom    4 type  1   force =     0.00000000    0.00000000   89.31249572
     atom    5 type  2   force =     0.00000148    0.00000000  166.45777327
     atom    6 type  2   force =    -0.00000148   -0.00000000  166.45777327
     atom    7 type  1   force =     0.00000101   -1.04520323   62.50769552
     atom    8 type  1   force =    -0.00000101   -1.04520323   62.50769552
     atom    9 type  2   force =    -0.00000000    0.00000000  166.15941470
     atom   10 type  2   force =     0.00000000    0.00000000  166.15942019
     atom   11 type  1   force =     0.00000101    1.04520323   62.50769552
     atom   12 type  1   force =    -0.00000101    1.04520323   62.50769552
     atom   13 type  1   force =     0.00000000    0.00000000   36.58749618
     atom   14 type  1   force =     0.00000000    0.00000000   36.58750004
     atom   15 type  1   force =    -0.00000000    0.00000000   25.78322454
     atom   16 type  1   force =     0.00000000    0.00000000   25.78322433
     atom   17 type  2   force =    -0.00000000    0.00000000   -0.00587085
     atom   18 type  2   force =     0.00000000    0.00000000   -0.00587085
     atom   19 type  1   force =     0.00000437    0.89478962   -0.00246564
     atom   20 type  1   force =    -0.00000437    0.89478962   -0.00246564
     atom   21 type  2   force =     0.00000432    0.00000000   -0.00604697
     atom   22 type  2   force =    -0.00000432    0.00000000   -0.00604697
     atom   23 type  1   force =     0.00000437   -0.89512802   -0.00246564
     atom   24 type  1   force =    -0.00000437   -0.89512802   -0.00246564
     atom   25 type  1   force =     0.00000000    0.00000000  -25.78497819
     atom   26 type  1   force =     0.00000000    0.00000000  -25.78497797
     atom   27 type  1   force =    -0.00000000    0.00000000  -36.58924854
     atom   28 type  1   force =     0.00000000    0.00000000  -36.58925240
     atom   29 type  2   force =     0.00000148    0.00000000 -166.46386001
     atom   30 type  2   force =    -0.00000148   -0.00000000 -166.46386001
     atom   31 type  1   force =     0.00000101   -1.04520429  -62.51016838
     atom   32 type  1   force =    -0.00000101   -1.04520429  -62.51016838
     atom   33 type  2   force =    -0.00000000    0.00000000 -166.16529290
     atom   34 type  2   force =     0.00000000    0.00000000 -166.16529839
     atom   35 type  1   force =     0.00000101    1.04520429  -62.51016838
     atom   36 type  1   force =    -0.00000101    1.04520429  -62.51016838
     atom   37 type  1   force =    -0.00000000   -0.00000000  -89.31622705
     atom   38 type  1   force =    -0.00000000    0.00000000  -89.31622826
     atom   39 type  1   force =    -0.00000000    0.00000000  -93.25897675
     atom   40 type  1   force =     0.00000000    0.00000000  -93.25897850
     atom   41 type  3   force =     0.00000000   -1.86022707   17.22522258
     atom   42 type  3   force =    -0.00000000   -1.86022707  -17.22522258
     atom   43 type  3   force =    -0.00000000   -1.86022707   17.22522184
     atom   44 type  3   force =    -0.00000000   -1.86022707  -17.22522184
     atom   45 type  3   force =     0.00000000    1.86022707   17.22522258
     atom   46 type  3   force =    -0.00000000    1.86022707  -17.22522258
     atom   47 type  3   force =     0.00000000    1.86022707   17.22522184
     atom   48 type  3   force =     0.00000000    1.86022707  -17.22522184
     The core correction contribution to forces
     atom    1 type  1   force =     0.00000000    0.00000000   -0.00977673
     atom    2 type  1   force =    -0.00000000    0.00000000   -0.00977673
     atom    3 type  1   force =     0.00000000    0.00000000    0.01640924
     atom    4 type  1   force =    -0.00000000   -0.00000000    0.01640926
     atom    5 type  2   force =     0.00000000    0.00000000    0.00000000
     atom    6 type  2   force =     0.00000000    0.00000000    0.00000000
     atom    7 type  1   force =    -0.00000000   -0.00032224    0.00012138
     atom    8 type  1   force =     0.00000000   -0.00032224    0.00012138
     atom    9 type  2   force =     0.00000000    0.00000000    0.00000000
     atom   10 type  2   force =     0.00000000    0.00000000    0.00000000
     atom   11 type  1   force =    -0.00000000    0.00032224    0.00012138
     atom   12 type  1   force =     0.00000000    0.00032224    0.00012138
     atom   13 type  1   force =     0.00000000   -0.00000000    0.00180644
     atom   14 type  1   force =     0.00000000   -0.00000000    0.00180644
     atom   15 type  1   force =     0.00000000   -0.00000000   -0.00091749
     atom   16 type  1   force =     0.00000000   -0.00000000   -0.00091749
     atom   17 type  2   force =     0.00000000    0.00000000    0.00000000
     atom   18 type  2   force =     0.00000000    0.00000000    0.00000000
     atom   19 type  1   force =    -0.00000000    0.00072027   -0.00000215
     atom   20 type  1   force =     0.00000000    0.00072027   -0.00000215
     atom   21 type  2   force =     0.00000000    0.00000000    0.00000000
     atom   22 type  2   force =     0.00000000    0.00000000    0.00000000
     atom   23 type  1   force =    -0.00000000   -0.00072074   -0.00000215
     atom   24 type  1   force =     0.00000000   -0.00072074   -0.00000215
     atom   25 type  1   force =     0.00000000   -0.00000000    0.00091515
     atom   26 type  1   force =     0.00000000    0.00000000    0.00091515
     atom   27 type  1   force =     0.00000000   -0.00000000   -0.00180890
     atom   28 type  1   force =     0.00000000   -0.00000000   -0.00180890
     atom   29 type  2   force =     0.00000000    0.00000000    0.00000000
     atom   30 type  2   force =     0.00000000    0.00000000    0.00000000
     atom   31 type  1   force =    -0.00000000   -0.00032212   -0.00012356
     atom   32 type  1   force =     0.00000000   -0.00032212   -0.00012356
     atom   33 type  2   force =     0.00000000    0.00000000    0.00000000
     atom   34 type  2   force =     0.00000000    0.00000000    0.00000000
     atom   35 type  1   force =    -0.00000000    0.00032212   -0.00012356
     atom   36 type  1   force =     0.00000000    0.00032212   -0.00012356
     atom   37 type  1   force =     0.00000000   -0.00000000   -0.01641437
     atom   38 type  1   force =    -0.00000000   -0.00000000   -0.01641439
     atom   39 type  1   force =     0.00000000   -0.00000000    0.00977413
     atom   40 type  1   force =     0.00000000   -0.00000000    0.00977414
     atom   41 type  3   force =     0.00000000    0.00000000    0.00000000
     atom   42 type  3   force =     0.00000000    0.00000000    0.00000000
     atom   43 type  3   force =     0.00000000    0.00000000    0.00000000
     atom   44 type  3   force =     0.00000000    0.00000000    0.00000000
     atom   45 type  3   force =     0.00000000    0.00000000    0.00000000
     atom   46 type  3   force =     0.00000000    0.00000000    0.00000000
     atom   47 type  3   force =     0.00000000    0.00000000    0.00000000
     atom   48 type  3   force =     0.00000000    0.00000000    0.00000000
     The Hubbard contrib.    to forces
     atom    1 type  1   force =     0.00000000    0.00000000    0.00000000
     atom    2 type  1   force =     0.00000000    0.00000000    0.00000000
     atom    3 type  1   force =     0.00000000    0.00000000    0.00000000
     atom    4 type  1   force =     0.00000000    0.00000000    0.00000000
     atom    5 type  2   force =     0.00000000    0.00000000    0.00000000
     atom    6 type  2   force =     0.00000000    0.00000000    0.00000000
     atom    7 type  1   force =     0.00000000    0.00000000    0.00000000
     atom    8 type  1   force =     0.00000000    0.00000000    0.00000000
     atom    9 type  2   force =     0.00000000    0.00000000    0.00000000
     atom   10 type  2   force =     0.00000000    0.00000000    0.00000000
     atom   11 type  1   force =     0.00000000    0.00000000    0.00000000
     atom   12 type  1   force =     0.00000000    0.00000000    0.00000000
     atom   13 type  1   force =     0.00000000    0.00000000    0.00000000
     atom   14 type  1   force =     0.00000000    0.00000000    0.00000000
     atom   15 type  1   force =     0.00000000    0.00000000    0.00000000
     atom   16 type  1   force =     0.00000000    0.00000000    0.00000000
     atom   17 type  2   force =     0.00000000    0.00000000    0.00000000
     atom   18 type  2   force =     0.00000000    0.00000000    0.00000000
     atom   19 type  1   force =     0.00000000    0.00000000    0.00000000
     atom   20 type  1   force =     0.00000000    0.00000000    0.00000000
     atom   21 type  2   force =     0.00000000    0.00000000    0.00000000
     atom   22 type  2   force =     0.00000000    0.00000000    0.00000000
     atom   23 type  1   force =     0.00000000    0.00000000    0.00000000
     atom   24 type  1   force =     0.00000000    0.00000000    0.00000000
     atom   25 type  1   force =     0.00000000    0.00000000    0.00000000
     atom   26 type  1   force =     0.00000000    0.00000000    0.00000000
     atom   27 type  1   force =     0.00000000    0.00000000    0.00000000
     atom   28 type  1   force =     0.00000000    0.00000000    0.00000000
     atom   29 type  2   force =     0.00000000    0.00000000    0.00000000
     atom   30 type  2   force =     0.00000000    0.00000000    0.00000000
     atom   31 type  1   force =     0.00000000    0.00000000    0.00000000
     atom   32 type  1   force =     0.00000000    0.00000000    0.00000000
     atom   33 type  2   force =     0.00000000    0.00000000    0.00000000
     atom   34 type  2   force =     0.00000000    0.00000000    0.00000000
     atom   35 type  1   force =     0.00000000    0.00000000    0.00000000
     atom   36 type  1   force =     0.00000000    0.00000000    0.00000000
     atom   37 type  1   force =     0.00000000    0.00000000    0.00000000
     atom   38 type  1   force =     0.00000000    0.00000000    0.00000000
     atom   39 type  1   force =     0.00000000    0.00000000    0.00000000
     atom   40 type  1   force =     0.00000000    0.00000000    0.00000000
     atom   41 type  3   force =     0.00000000    0.00000000    0.00000000
     atom   42 type  3   force =     0.00000000    0.00000000    0.00000000
     atom   43 type  3   force =     0.00000000    0.00000000    0.00000000
     atom   44 type  3   force =     0.00000000    0.00000000    0.00000000
     atom   45 type  3   force =     0.00000000    0.00000000    0.00000000
     atom   46 type  3   force =     0.00000000    0.00000000    0.00000000
     atom   47 type  3   force =     0.00000000    0.00000000    0.00000000
     atom   48 type  3   force =     0.00000000    0.00000000    0.00000000
     The SCF correction term to forces
     atom    1 type  1   force =     0.00000000   -0.00000000   -0.00000315
     atom    2 type  1   force =    -0.00000000   -0.00000000   -0.00000518
     atom    3 type  1   force =    -0.00000000    0.00000001   -0.00000744
     atom    4 type  1   force =     0.00000000    0.00000001   -0.00000991
     atom    5 type  2   force =    -0.00000099    0.00000004   -0.00000382
     atom    6 type  2   force =     0.00000099    0.00000004   -0.00000382
     atom    7 type  1   force =    -0.00000099   -0.00000130    0.00000054
     atom    8 type  1   force =     0.00000099   -0.00000130    0.00000054
     atom    9 type  2   force =    -0.00000000   -0.00000004    0.00000533
     atom   10 type  2   force =     0.00000000   -0.00000004   -0.00000063
     atom   11 type  1   force =    -0.00000099    0.00000129    0.00000053
     atom   12 type  1   force =     0.00000099    0.00000129    0.00000053
     atom   13 type  1   force =    -0.00000000    0.00000002    0.00000510
     atom   14 type  1   force =     0.00000000    0.00000002    0.00000076
     atom   15 type  1   force =    -0.00000000   -0.00000003    0.00000549
     atom   16 type  1   force =     0.00000000   -0.00000003    0.00000564
     atom   17 type  2   force =    -0.00000000    0.00000009    0.00001267
     atom   18 type  2   force =     0.00000000    0.00000009    0.00001268
     atom   19 type  1   force =    -0.00000457    0.00000208    0.00000465
     atom   20 type  1   force =     0.00000457    0.00000208    0.00000465
     atom   21 type  2   force =    -0.00000435   -0.00000009    0.00001269
     atom   22 type  2   force =     0.00000435   -0.00000009    0.00001269
     atom   23 type  1   force =    -0.00000457   -0.00000205    0.00000465
     atom   24 type  1   force =     0.00000457   -0.00000205    0.00000465
     atom   25 type  1   force =    -0.00000000   -0.00000003    0.00000104
     atom   26 type  1   force =     0.00000000   -0.00000003    0.00000089
     atom   27 type  1   force =    -0.00000000    0.00000002   -0.00000213
     atom   28 type  1   force =     0.00000000    0.00000002    0.00000220
     atom   29 type  2   force =    -0.00000099    0.00000004   -0.00000418
     atom   30 type  2   force =     0.00000099    0.00000004   -0.00000418
     atom   31 type  1   force =    -0.00000099   -0.00000139   -0.00000348
     atom   32 type  1   force =     0.00000099   -0.00000139   -0.00000348
     atom   33 type  2   force =    -0.00000000   -0.00000004   -0.00001382
     atom   34 type  2   force =     0.00000000   -0.00000004   -0.00000786
     atom   35 type  1   force =    -0.00000099    0.00000138   -0.00000347
     atom   36 type  1   force =     0.00000099    0.00000138   -0.00000347
     atom   37 type  1   force =    -0.00000000    0.00000001    0.00000281
     atom   38 type  1   force =     0.00000000    0.00000001    0.00000527
     atom   39 type  1   force =    -0.00000000   -0.00000000   -0.00000049
     atom   40 type  1   force =     0.00000000   -0.00000000    0.00000153
     atom   41 type  3   force =    -0.00000000   -0.00000044   -0.00000067
     atom   42 type  3   force =    -0.00000000   -0.00000042    0.00000017
     atom   43 type  3   force =     0.00000000   -0.00000041   -0.00000075
     atom   44 type  3   force =     0.00000000   -0.00000040    0.00000025
     atom   45 type  3   force =     0.00000000    0.00000044   -0.00000067
     atom   46 type  3   force =    -0.00000000    0.00000042    0.00000017
     atom   47 type  3   force =    -0.00000000    0.00000041   -0.00000075
     atom   48 type  3   force =     0.00000000    0.00000040    0.00000025

     Total force =     0.616671     Total SCF correction =     0.000040

     BFGS Geometry Optimization
     Energy error            =      0.0E+00 Ry
     Gradient error          =      1.6E-01 Ry/Bohr

     number of scf cycles    =   1
     number of bfgs steps    =   0

     energy             new  =   -3436.9892198424 Ry

     new trust radius        =       0.1632836761 bohr
     new conv_thr            =            1.0E-10 Ry


ATOMIC_POSITIONS (crystal)
O             0.0000000000        0.5000000000        0.2633981076
O             0.5000000000        0.5000000000        0.2633981165
O             0.0000000000        0.0000000000        0.2902620648
O             0.5000000000        0.0000000000        0.2902620556
Ru            0.2499999960        0.0000000000        0.3550238483
Ru            0.7500000040        0.0000000000        0.3550238483
O             0.2499999909        0.3113518372        0.3518171789
O             0.7500000091        0.3113518372        0.3518171789
Ru            0.0000000000        0.5000000000        0.3488557910
Ru            0.5000000000        0.5000000000        0.3488557890
O             0.2499999909        0.6886481628        0.3518171789
O             0.7500000091        0.6886481628        0.3518171789
O             0.0000000000        0.0000000000        0.4086949361
O             0.5000000000        0.0000000000        0.4086949263
O             0.0000000000        0.5000000000        0.4425923517
O             0.5000000000        0.5000000000        0.4425923546
Ru            0.0000000000        0.0000000000        0.5000010000
Ru            0.5000000000        0.0000000000        0.5000010000
O             0.2499999706        0.1874613494        0.5000010000
O             0.7500000294        0.1874613494        0.5000010000
Ru            0.2499999977        0.5000000000        0.5000010000
Ru            0.7500000023        0.5000000000        0.5000010000
O             0.2499999706        0.8125396506        0.5000010000
O             0.7500000294        0.8125396506        0.5000010000
O             0.0000000000        0.5000000000        0.5574086483
O             0.5000000000        0.5000000000        0.5574086454
O             0.0000000000        0.0000000000        0.5913060639
O             0.5000000000        0.0000000000        0.5913060737
Ru            0.2499999960        0.0000000000        0.6449771517
Ru            0.7500000040        0.0000000000        0.6449771517
O             0.2499999909        0.3113518372        0.6481838211
O             0.7500000091        0.3113518372        0.6481838211
Ru            0.0000000000        0.5000000000        0.6511452090
Ru            0.5000000000        0.5000000000        0.6511452110
O             0.2499999909        0.6886481628        0.6481838211
O             0.7500000091        0.6886481628        0.6481838211
O             0.0000000000        0.0000000000        0.7097399352
O             0.5000000000        0.0000000000        0.7097399444
O             0.0000000000        0.5000000000        0.7366028924
O             0.5000000000        0.5000000000        0.7366028835
H             0.0000000000        0.1190582432        0.2614880484
H             0.0000000000        0.1190582432        0.7385119516
H             0.5000000000        0.1190582666        0.2614880475
H             0.5000000000        0.1190582666        0.7385119525
H             0.0000000000        0.8809417568        0.2614880484
H             0.0000000000        0.8809417568        0.7385119516
H             0.5000000000        0.8809417334        0.2614880475
H             0.5000000000        0.8809417334        0.7385119525



     Writing config-only to output data dir /storage/home/mgm6007/ixd4/Maria/Strain1_Files/RuO2-110-0-2345/RuO2-110-0-2345.save/
     NEW-OLD atomic charge density approx. for the potential

     Check: negative core charge=   -0.000001

     negative rho (up, down):  7.592E-05 0.000E+00

     add environment contribution to local potential
     Polarization accuracy = 1.0E-12, # of iterations =  41

     total cpu time spent up to now is    17103.4 secs

     per-process dynamical memory:   203.3 Mb

     Self-consistent Calculation

     iteration #  1     ecut=    50.00 Ry     beta= 0.70
     Davidson diagonalization with overlap
     ethr =  1.00E-06,  avg # of iterations =  9.0

     negative rho (up, down):  2.761E-08 0.000E+00

     total cpu time spent up to now is    17415.2 secs

     total energy              =   -3437.21268103 Ry
     estimated scf accuracy    <       0.24180653 Ry
     electrostatic embedding   =      -0.19683650 Ry
     cavitation energy         =       0.02053304 Ry
     PV energy                 =      -0.08351646 Ry
     correction to one-el term =     164.93488949 Ry

     iteration #  2     ecut=    50.00 Ry     beta= 0.70
     Davidson diagonalization with overlap
     ethr =  6.57E-05,  avg # of iterations =  2.0

     negative rho (up, down):  6.702E-08 0.000E+00

     total cpu time spent up to now is    17728.4 secs

     total energy              =   -3437.22424987 Ry
     estimated scf accuracy    <       0.70186126 Ry
     electrostatic embedding   =      -0.19095688 Ry
     cavitation energy         =       0.02050764 Ry
     PV energy                 =      -0.08366718 Ry
     correction to one-el term =     164.92087575 Ry

     iteration #  3     ecut=    50.00 Ry     beta= 0.70
     Davidson diagonalization with overlap
     ethr =  6.57E-05,  avg # of iterations =  1.0

     add environment contribution to local potential
     Polarization accuracy = 3.2E-12, # of iterations =  36

     total cpu time spent up to now is    17984.2 secs

     total energy              =   -3437.24526906 Ry
     estimated scf accuracy    <       0.09631241 Ry
     electrostatic embedding   =      -0.18946735 Ry
     cavitation energy         =       0.02052482 Ry
     PV energy                 =      -0.08360791 Ry
     correction to one-el term =     164.91826589 Ry

     iteration #  4     ecut=    50.00 Ry     beta= 0.70
     Davidson diagonalization with overlap
     ethr =  2.62E-05,  avg # of iterations =  1.0

     add environment contribution to local potential
     Polarization accuracy = 9.4E-12, # of iterations =  37

     total cpu time spent up to now is    18267.1 secs

     total energy              =   -3437.23999160 Ry
     estimated scf accuracy    <       0.03327336 Ry
     electrostatic embedding   =      -0.17292979 Ry
     cavitation energy         =       0.02053620 Ry
     PV energy                 =      -0.08360077 Ry
     correction to one-el term =     165.77183104 Ry

     iteration #  5     ecut=    50.00 Ry     beta= 0.70
     Davidson diagonalization with overlap
     ethr =  9.04E-06,  avg # of iterations =  2.0

     negative rho (up, down):  2.329E-08 0.000E+00

[...]
     atom   15 type  1   force =    -0.00000000   -0.00000000   26.99911658
     atom   16 type  1   force =     0.00000000   -0.00000000   26.99911683
     atom   17 type  2   force =    -0.00000000    0.00000000   -0.00582131
     atom   18 type  2   force =     0.00000000    0.00000000   -0.00582131
     atom   19 type  1   force =    -0.00000040   -1.11084543   -0.00246313
     atom   20 type  1   force =     0.00000040   -1.11084543   -0.00246313
     atom   21 type  2   force =     0.00000042   -0.00000000   -0.00607318
     atom   22 type  2   force =    -0.00000042   -0.00000000   -0.00607318
     atom   23 type  1   force =    -0.00000040    1.11049805   -0.00246313
     atom   24 type  1   force =     0.00000040    1.11049805   -0.00246313
     atom   25 type  1   force =    -0.00000000   -0.00000000  -27.00091571
     atom   26 type  1   force =     0.00000000   -0.00000000  -27.00091596
     atom   27 type  1   force =     0.00000000    0.00000000  -38.58797873
     atom   28 type  1   force =    -0.00000000   -0.00000000  -38.58797832
     atom   29 type  2   force =    -0.00000026    0.00000000 -165.45612038
     atom   30 type  2   force =     0.00000026   -0.00000000 -165.45612038
     atom   31 type  1   force =    -0.00000023    0.35277397  -63.60436553
     atom   32 type  1   force =     0.00000023    0.35277397  -63.60436553
     atom   33 type  2   force =    -0.00000000   -0.00000000 -171.44564855
     atom   34 type  2   force =     0.00000000   -0.00000000 -171.44564872
     atom   35 type  1   force =    -0.00000023   -0.35277397  -63.60436553
     atom   36 type  1   force =     0.00000023   -0.35277397  -63.60436553
     atom   37 type  1   force =    -0.00000000    0.00000000  -90.52580382
     atom   38 type  1   force =     0.00000000   -0.00000000  -90.52580375
     atom   39 type  1   force =    -0.00000000   -0.00000000  -97.95408839
     atom   40 type  1   force =     0.00000000   -0.00000000  -97.95408756
     atom   41 type  3   force =     0.00000000   -2.14336324   16.89312548
     atom   42 type  3   force =    -0.00000000   -2.14336324  -16.89312548
     atom   43 type  3   force =    -0.00000000   -2.14336325   16.89312548
     atom   44 type  3   force =    -0.00000000   -2.14336325  -16.89312548
     atom   45 type  3   force =     0.00000000    2.14336324   16.89312548
     atom   46 type  3   force =    -0.00000000    2.14336324  -16.89312548
     atom   47 type  3   force =     0.00000000    2.14336325   16.89312548
     atom   48 type  3   force =     0.00000000    2.14336325  -16.89312548
     The core correction contribution to forces
     atom    1 type  1   force =    -0.00000000   -0.00000000   -0.00985465
     atom    2 type  1   force =     0.00000000   -0.00000000   -0.00985465
     atom    3 type  1   force =     0.00000000    0.00000000    0.01308284
     atom    4 type  1   force =    -0.00000000    0.00000000    0.01308284
     atom    5 type  2   force =     0.00000000    0.00000000    0.00000000
     atom    6 type  2   force =     0.00000000    0.00000000    0.00000000
     atom    7 type  1   force =     0.00000000    0.00021120    0.00040276
     atom    8 type  1   force =    -0.00000000    0.00021120    0.00040276
     atom    9 type  2   force =     0.00000000    0.00000000    0.00000000
     atom   10 type  2   force =     0.00000000    0.00000000    0.00000000
     atom   11 type  1   force =     0.00000000   -0.00021120    0.00040276
     atom   12 type  1   force =    -0.00000000   -0.00021120    0.00040276
     atom   13 type  1   force =     0.00000000    0.00000000    0.00232523
     atom   14 type  1   force =     0.00000000    0.00000000    0.00232523
     atom   15 type  1   force =     0.00000000   -0.00000000   -0.00193338
     atom   16 type  1   force =    -0.00000000   -0.00000000   -0.00193338
     atom   17 type  2   force =     0.00000000    0.00000000    0.00000000
     atom   18 type  2   force =     0.00000000    0.00000000    0.00000000
     atom   19 type  1   force =     0.00000000   -0.00031872   -0.00000200
     atom   20 type  1   force =    -0.00000000   -0.00031872   -0.00000200
     atom   21 type  2   force =     0.00000000    0.00000000    0.00000000
     atom   22 type  2   force =     0.00000000    0.00000000    0.00000000
     atom   23 type  1   force =     0.00000000    0.00031822   -0.00000200
     atom   24 type  1   force =    -0.00000000    0.00031822   -0.00000200
     atom   25 type  1   force =     0.00000000   -0.00000000    0.00193119
     atom   26 type  1   force =    -0.00000000   -0.00000000    0.00193119
     atom   27 type  1   force =    -0.00000000    0.00000000   -0.00232719
     atom   28 type  1   force =    -0.00000000    0.00000000   -0.00232719
     atom   29 type  2   force =     0.00000000    0.00000000    0.00000000
     atom   30 type  2   force =     0.00000000    0.00000000    0.00000000
     atom   31 type  1   force =     0.00000000    0.00021153   -0.00040446
     atom   32 type  1   force =    -0.00000000    0.00021153   -0.00040446
     atom   33 type  2   force =     0.00000000    0.00000000    0.00000000
     atom   34 type  2   force =     0.00000000    0.00000000    0.00000000
     atom   35 type  1   force =     0.00000000   -0.00021153   -0.00040446
     atom   36 type  1   force =    -0.00000000   -0.00021153   -0.00040446
     atom   37 type  1   force =     0.00000000    0.00000000   -0.01308695
     atom   38 type  1   force =     0.00000000    0.00000000   -0.01308695
     atom   39 type  1   force =     0.00000000   -0.00000000    0.00985231
     atom   40 type  1   force =     0.00000000   -0.00000000    0.00985231
     atom   41 type  3   force =     0.00000000    0.00000000    0.00000000
     atom   42 type  3   force =     0.00000000    0.00000000    0.00000000
     atom   43 type  3   force =     0.00000000    0.00000000    0.00000000
     atom   44 type  3   force =     0.00000000    0.00000000    0.00000000
     atom   45 type  3   force =     0.00000000    0.00000000    0.00000000
     atom   46 type  3   force =     0.00000000    0.00000000    0.00000000
     atom   47 type  3   force =     0.00000000    0.00000000    0.00000000
     atom   48 type  3   force =     0.00000000    0.00000000    0.00000000
     The Hubbard contrib.    to forces
     atom    1 type  1   force =     0.00000000    0.00000000    0.00000000
     atom    2 type  1   force =     0.00000000    0.00000000    0.00000000
     atom    3 type  1   force =     0.00000000    0.00000000    0.00000000
     atom    4 type  1   force =     0.00000000    0.00000000    0.00000000
     atom    5 type  2   force =     0.00000000    0.00000000    0.00000000
     atom    6 type  2   force =     0.00000000    0.00000000    0.00000000
     atom    7 type  1   force =     0.00000000    0.00000000    0.00000000
     atom    8 type  1   force =     0.00000000    0.00000000    0.00000000
     atom    9 type  2   force =     0.00000000    0.00000000    0.00000000
     atom   10 type  2   force =     0.00000000    0.00000000    0.00000000
     atom   11 type  1   force =     0.00000000    0.00000000    0.00000000
     atom   12 type  1   force =     0.00000000    0.00000000    0.00000000
     atom   13 type  1   force =     0.00000000    0.00000000    0.00000000
     atom   14 type  1   force =     0.00000000    0.00000000    0.00000000
     atom   15 type  1   force =     0.00000000    0.00000000    0.00000000
     atom   16 type  1   force =     0.00000000    0.00000000    0.00000000
     atom   17 type  2   force =     0.00000000    0.00000000    0.00000000
     atom   18 type  2   force =     0.00000000    0.00000000    0.00000000
     atom   19 type  1   force =     0.00000000    0.00000000    0.00000000
     atom   20 type  1   force =     0.00000000    0.00000000    0.00000000
     atom   21 type  2   force =     0.00000000    0.00000000    0.00000000
     atom   22 type  2   force =     0.00000000    0.00000000    0.00000000
     atom   23 type  1   force =     0.00000000    0.00000000    0.00000000
     atom   24 type  1   force =     0.00000000    0.00000000    0.00000000
     atom   25 type  1   force =     0.00000000    0.00000000    0.00000000
     atom   26 type  1   force =     0.00000000    0.00000000    0.00000000
     atom   27 type  1   force =     0.00000000    0.00000000    0.00000000
     atom   28 type  1   force =     0.00000000    0.00000000    0.00000000
     atom   29 type  2   force =     0.00000000    0.00000000    0.00000000
     atom   30 type  2   force =     0.00000000    0.00000000    0.00000000
     atom   31 type  1   force =     0.00000000    0.00000000    0.00000000
     atom   32 type  1   force =     0.00000000    0.00000000    0.00000000
     atom   33 type  2   force =     0.00000000    0.00000000    0.00000000
     atom   34 type  2   force =     0.00000000    0.00000000    0.00000000
     atom   35 type  1   force =     0.00000000    0.00000000    0.00000000
     atom   36 type  1   force =     0.00000000    0.00000000    0.00000000
     atom   37 type  1   force =     0.00000000    0.00000000    0.00000000
     atom   38 type  1   force =     0.00000000    0.00000000    0.00000000
     atom   39 type  1   force =     0.00000000    0.00000000    0.00000000
     atom   40 type  1   force =     0.00000000    0.00000000    0.00000000
     atom   41 type  3   force =     0.00000000    0.00000000    0.00000000
     atom   42 type  3   force =     0.00000000    0.00000000    0.00000000
     atom   43 type  3   force =     0.00000000    0.00000000    0.00000000
     atom   44 type  3   force =     0.00000000    0.00000000    0.00000000
     atom   45 type  3   force =     0.00000000    0.00000000    0.00000000
     atom   46 type  3   force =     0.00000000    0.00000000    0.00000000
     atom   47 type  3   force =     0.00000000    0.00000000    0.00000000
     atom   48 type  3   force =     0.00000000    0.00000000    0.00000000
     The SCF correction term to forces
     atom    1 type  1   force =    -0.00000000   -0.00000000    0.00000021
     atom    2 type  1   force =     0.00000000   -0.00000000    0.00000045
     atom    3 type  1   force =     0.00000000    0.00000000    0.00000011
     atom    4 type  1   force =     0.00000000    0.00000000    0.00000017
     atom    5 type  2   force =     0.00000043    0.00000000   -0.00000013
     atom    6 type  2   force =    -0.00000043    0.00000000   -0.00000013
     atom    7 type  1   force =     0.00000030   -0.00000020   -0.00000005
     atom    8 type  1   force =    -0.00000030   -0.00000020   -0.00000005
     atom    9 type  2   force =    -0.00000000   -0.00000000    0.00000028
     atom   10 type  2   force =     0.00000000   -0.00000000    0.00000018
     atom   11 type  1   force =     0.00000030    0.00000020   -0.00000005
     atom   12 type  1   force =    -0.00000030    0.00000020   -0.00000005
     atom   13 type  1   force =     0.00000000    0.00000000   -0.00000049
     atom   14 type  1   force =     0.00000000    0.00000000    0.00000005
     atom   15 type  1   force =     0.00000000   -0.00000000   -0.00000006
     atom   16 type  1   force =    -0.00000000   -0.00000000   -0.00000015
     atom   17 type  2   force =     0.00000000    0.00000000   -0.00000003
     atom   18 type  2   force =     0.00000000    0.00000000   -0.00000003
     atom   19 type  1   force =     0.00000060   -0.00000008   -0.00000001
     atom   20 type  1   force =    -0.00000060   -0.00000008   -0.00000001
     atom   21 type  2   force =     0.00000064   -0.00000000   -0.00000003
     atom   22 type  2   force =    -0.00000064   -0.00000000   -0.00000003
     atom   23 type  1   force =     0.00000060    0.00000008   -0.00000001
     atom   24 type  1   force =    -0.00000060    0.00000008   -0.00000001
     atom   25 type  1   force =     0.00000000   -0.00000000    0.00000004
     atom   26 type  1   force =     0.00000000   -0.00000000    0.00000013
     atom   27 type  1   force =    -0.00000000    0.00000000    0.00000047
     atom   28 type  1   force =     0.00000000    0.00000000   -0.00000007
     atom   29 type  2   force =     0.00000043    0.00000000    0.00000011
     atom   30 type  2   force =    -0.00000043    0.00000000    0.00000011
     atom   31 type  1   force =     0.00000030   -0.00000020    0.00000004
     atom   32 type  1   force =    -0.00000030   -0.00000020    0.00000004
     atom   33 type  2   force =    -0.00000000   -0.00000000   -0.00000031
     atom   34 type  2   force =    -0.00000000   -0.00000000   -0.00000020
     atom   35 type  1   force =     0.00000030    0.00000020    0.00000004
     atom   36 type  1   force =    -0.00000030    0.00000020    0.00000004
     atom   37 type  1   force =    -0.00000000    0.00000000   -0.00000011
     atom   38 type  1   force =     0.00000000    0.00000000   -0.00000017
     atom   39 type  1   force =    -0.00000000    0.00000000   -0.00000021
     atom   40 type  1   force =     0.00000000    0.00000000   -0.00000045
     atom   41 type  3   force =     0.00000000   -0.00000005    0.00000003
     atom   42 type  3   force =    -0.00000000   -0.00000005   -0.00000003
     atom   43 type  3   force =     0.00000000   -0.00000003    0.00000005
     atom   44 type  3   force =     0.00000000   -0.00000003   -0.00000005
     atom   45 type  3   force =     0.00000000    0.00000005    0.00000003
     atom   46 type  3   force =    -0.00000000    0.00000005   -0.00000003
     atom   47 type  3   force =     0.00000000    0.00000003    0.00000005
     atom   48 type  3   force =     0.00000000    0.00000003   -0.00000005

     Total force =     0.000145     Total SCF correction =     0.000002
     Energy error            =      1.0E-07 Ry
     Gradient error          =      4.7E-05 Ry/Bohr

     bfgs converged in  26 scf cycles and  25 bfgs steps
     (criteria: energy <  1.0E-04 Ry, force <  1.0E-04 Ry/Bohr)

     End of BFGS Geometry Optimization

     Final energy             =   -3437.3739272065 Ry

     File /storage/home/mgm6007/ixd4/Maria/Strain1_Files/RuO2-110-0-2345/RuO2-110-0-2345.bfgs deleted, as requested
Begin final coordinates

ATOMIC_POSITIONS (crystal)
O             0.0000000000        0.5000000000        0.2687095957
O             0.5000000000        0.5000000000        0.2687095937
O             0.0000000000        0.0000000000        0.2908490332
O             0.5000000000        0.0000000000        0.2908490349
Ru            0.2499999996        0.0000000000        0.3609261883
Ru            0.7500000004       -0.0000000000        0.3609261883
O             0.2500000015        0.3111640553        0.3548993987
O             0.7499999985        0.3111640553        0.3548993987
Ru            0.0000000000        0.5000000000        0.3501462196
Ru            0.5000000000        0.5000000000        0.3501462193
O             0.2500000015        0.6888359447        0.3548993987
O             0.7499999985        0.6888359447        0.3548993987
O             0.0000000000        0.0000000000        0.4126156839
O             0.5000000000        0.0000000000        0.4126156845
O             0.0000000000        0.5000000000        0.4440367081
O             0.5000000000        0.5000000000        0.4440367115
Ru            0.0000000000        0.0000000000        0.5000010000
Ru            0.5000000000        0.0000000000        0.5000010000
O             0.2500000007        0.1866198295        0.5000010000
O             0.7499999993        0.1866198295        0.5000010000
Ru            0.2499999989        0.5000000000        0.5000010000
Ru            0.7500000011        0.5000000000        0.5000010000
O             0.2500000007        0.8133811705        0.5000010000
O             0.7499999993        0.8133811705        0.5000010000
O             0.0000000000        0.5000000000        0.5559642919
O             0.5000000000        0.5000000000        0.5559642885
O             0.0000000000        0.0000000000        0.5873853161
O             0.5000000000        0.0000000000        0.5873853155
Ru            0.2499999996       -0.0000000000        0.6390748117
Ru            0.7500000004        0.0000000000        0.6390748117
O             0.2500000015        0.3111640553        0.6451016013
O             0.7499999985        0.3111640553        0.6451016013
Ru            0.0000000000        0.5000000000        0.6498547804
Ru            0.5000000000        0.5000000000        0.6498547807
O             0.2500000015        0.6888359447        0.6451016013
O             0.7499999985        0.6888359447        0.6451016013
O             0.0000000000        0.0000000000        0.7091529668
O             0.5000000000        0.0000000000        0.7091529651
O             0.0000000000        0.5000000000        0.7312914043
O             0.5000000000        0.5000000000        0.7312914063
H             0.0000000000        0.1378937069        0.2655200191
H            -0.0000000000        0.1378937069        0.7344799809
H             0.5000000000        0.1378937073        0.2655200209
H             0.5000000000        0.1378937073        0.7344799791
H             0.0000000000        0.8621062931        0.2655200191
H             0.0000000000        0.8621062931        0.7344799809
H             0.5000000000        0.8621062927        0.2655200209
H             0.5000000000        0.8621062927        0.7344799791
End final coordinates



     Writing all to output data dir /storage/home/mgm6007/ixd4/Maria/Strain1_Files/RuO2-110-0-2345/RuO2-110-0-2345.save/
 
     init_run     :   1126.37s CPU   2525.29s WALL (       1 calls)
     electrons    :  51681.18s CPU 122752.38s WALL (      26 calls)
     update_pot   :     42.15s CPU     42.18s WALL (      25 calls)
     forces       :     40.59s CPU     40.93s WALL (      26 calls)

     Called by init_run:
     wfcinit      :      1.85s CPU      2.62s WALL (       1 calls)
     potinit      :    742.59s CPU   1719.01s WALL (       1 calls)
     hinit0       :    381.02s CPU    802.45s WALL (       1 calls)

     Called by electrons:
     c_bands      :    694.77s CPU    697.44s WALL (     548 calls)
     sum_band     :    146.32s CPU    147.19s WALL (     548 calls)
     v_of_rho     :     59.79s CPU     60.36s WALL (     559 calls)
     newd         :     39.01s CPU     39.08s WALL (     559 calls)
     PAW_pot      :     69.88s CPU     70.02s WALL (     584 calls)
     mix_rho      :    318.22s CPU    319.88s WALL (     548 calls)

     Called by c_bands:
     init_us_2    :      7.81s CPU      7.85s WALL (    1122 calls)
     init_us_2:cp :      7.80s CPU      7.84s WALL (    1122 calls)
     cegterg      :    669.05s CPU    671.55s WALL (     548 calls)

     Called by *egterg:
     cdiaghg      :     85.41s CPU     85.71s WALL (    1722 calls)
     h_psi        :    342.61s CPU    344.75s WALL (    1763 calls)
     s_psi        :     53.24s CPU     53.32s WALL (    1763 calls)
     g_psi        :      1.76s CPU      1.76s WALL (    1214 calls)

     Called by h_psi:
     h_psi:calbec :     54.98s CPU     55.11s WALL (    1763 calls)
     vloc_psi     :    229.47s CPU    231.37s WALL (    1763 calls)
     add_vuspsi   :     54.21s CPU     54.30s WALL (    1763 calls)

     General routines
     calbec       :     85.88s CPU     86.05s WALL (    2440 calls)
     fft          :  10982.80s CPU  10983.22s WALL (    7541 calls)
     ffts         :    113.37s CPU    113.82s WALL (  176378 calls)
     fftw         :    214.16s CPU    216.36s WALL (  639050 calls)
     interpolate  :  10941.19s CPU  10941.50s WALL (     559 calls)
 
     Parallel routines
 
     Environ routines
 
     PWSCF        :     15h21m CPU   1d12h22m WALL

 
   This run was terminated on:  23: 0:28  15Jul2023            

=------------------------------------------------------------------------------=
   JOB DONE.
=------------------------------------------------------------------------------=
