
     Program PWSCF v.7.2 starts on 18Jul2023 at 16: 6:41 
        Git branch: heads/qe-7.2
        Last git commit: b4c5e8deeb7d1863e7553a87b45f8d22c21926a5
        Last git commit date: Mon Mar 27 16:12:09 2023 +0000
        Last git commit subject: Merge branch 'merge_fix_hubbard' into 'develop'

     This program is part of the open-source Quantum ESPRESSO suite
     for quantum simulation of materials; please cite
         "P. Giannozzi et al., J. Phys.:Condens. Matter 21 395502 (2009);
         "P. Giannozzi et al., J. Phys.:Condens. Matter 29 465901 (2017);
         "P. Giannozzi et al., J. Chem. Phys. 152 154105 (2020);
          URL http://www.quantum-espresso.org", 
     in publications or presentations arising from this work. More details at
     http://www.quantum-espresso.org/quote

     Parallel version (MPI), running on    20 processors

     MPI processes distributed on     1 nodes
     97034 MiB available memory on the printing compute node when the environment starts
 
     Reading input from RuO2-110-0-23.in

     Current dimensions of program PWSCF are:
     Max number of different atomic species (ntypx) = 10
     Max number of k-points (npk) =  40000
     Max angular momentum in pseudopotentials (lmaxx) =  4
 
     Reading input from environ.in:
     * Environ restarting
     * setting up water environment
     * using electronic solvent mode
     * setting boundary derivatives method to SCCS default
     

     File /storage/home/mgm6007/ixd4/Maria/Strain1_Files/RuO2-110-0-23/RuO2-110-0-23.update deleted, as requested

     File /storage/home/mgm6007/ixd4/Maria/Strain1_Files/RuO2-110-0-23/RuO2-110-0-23.bfgs deleted, as requested
     file O.pbe-n-kjpaw_psl.0.1.UPF: wavefunction(s)  2P renormalized
     Message from routine setup:
     using ibrav=0 with symmetry is DISCOURAGED, use correct ibrav instead
 
     R & G space division:  proc/nbgrp/npool/nimage =      20
     Subspace diagonalization in iterative solution of the eigenvalue problem:
     one sub-group per band group will be used
     scalapack distributed-memory algorithm (size of sub-group:  2*  2 procs)

 
     Parallelization info
     --------------------
     sticks:   dense  smooth     PW     G-vecs:    dense   smooth      PW
     Min         276     110     29                54830    13868    1873
     Max         277     111     30                54841    13883    1882
     Sum        5527    2209    585              1096679   277485   37533
 
     Using Slab Decomposition
 


     bravais-lattice index     =            0
     lattice parameter (alat)  =      12.3893  a.u.
     unit-cell volume          =    5808.5831 (a.u.)^3
     number of atoms/cell      =           44
     number of atomic types    =            3
     number of electrons       =       364.00
     number of Kohn-Sham states=          218
     kinetic-energy cutoff     =      50.0000  Ry
     charge density cutoff     =     500.0000  Ry
     scf convergence threshold =      1.0E-09
     mixing beta               =       0.7000
     number of iterations used =            8  local-TF  mixing
     energy convergence thresh.=      1.0E-04
     force convergence thresh. =      1.0E-04
     Exchange-correlation= PBE
                           (   1   4   3   4   0   0   0)
     nstep                     =          200


     ================================================================================
 
                                  Environ Setup Summary

     ================================================================================
 
     Please cite

          O. Andreussi, I. Dabo and N. Marzari, J. Chem. Phys. 136, 064102 (2012)

     in publications or presentations arising from this work.

     ================================================================================
 
     Parameters
     ==========

     compensation onset threshold      =               0.1000E+00
     static permittivity               =                    78.30
     surface tension in input (dyn/cm) =                    47.90
     surface tension in internal units =               0.6153E-04
     external pressure in input (GPa)  =                    -0.36
     external pressure in inter. units =              -0.2447E-04

     Solvent Boundary
     ================

     solvent mode                      =               electronic
     derivatives method                =                    chain
     numerical core for derivatives    =                      fft
     switching function adopted        =                     SCCS
     density limit for vacuum region   =               0.5000E-02
     density limit for bulk solvent    =               0.1000E-03

     Electrostatic Setup
     ===================

     electrostatic problem to solve    =              generalized
     numerical solver adopted          =                       cg
     type of auxiliary density adopted =                     none
     numerical core for poisson        =                      fft
     type of pbc corrections           =                parabolic
     numerical core for corrections    =                      1da

     ================================================================================
 

     celldm(1)=  12.389316  celldm(2)=   0.000000  celldm(3)=   0.000000
     celldm(4)=   0.000000  celldm(5)=   0.000000  celldm(6)=   0.000000

     crystal axes: (cart. coord. in units of alat)
               a(1) = (   1.000000   0.000000   0.000000 )  
               a(2) = (   0.000000   0.904766   0.000000 )  
               a(3) = (   0.000000   0.000000   3.375918 )  

     reciprocal axes: (cart. coord. in units 2 pi/alat)
               b(1) = (  1.000000  0.000000  0.000000 )  
               b(2) = (  0.000000  1.105258  0.000000 )  
               b(3) = (  0.000000  0.000000  0.296216 )  


     PseudoPot. # 1 for O  read from file:
     /gpfs/group/ixd4/default/Simon/pseudopotentials/materialscloud/SSSP_1.3.0_PBE_efficiency/O.pbe-n-kjpaw_psl.0.1.UPF
     MD5 check sum: 0234752ac141de4415c5fc33072bef88
     Pseudo is Projector augmented-wave + core cor, Zval =  6.0
     Generated using "atomic" code by A. Dal Corso  v.5.0.99 svn rev. 10869
     Shape of augmentation charge: BESSEL
     Using radial grid of 1095 points,  4 beta functions with: 
                l(1) =   0
                l(2) =   0
                l(3) =   1
                l(4) =   1
     Q(r) pseudized with 0 coefficients 


     PseudoPot. # 2 for Ru read from file:
     /gpfs/group/ixd4/default/Simon/pseudopotentials/materialscloud/SSSP_1.3.0_PBE_efficiency/Ru_ONCV_PBE-1.0.oncvpsp.upf
     MD5 check sum: be037bb81c227cfb9b1461a9f099f4bd
     Pseudo is Norm-conserving, Zval = 16.0
     Generated using ONCVPSP code by D. R. Hamann
     Using radial grid of 1458 points,  6 beta functions with: 
                l(1) =   0
                l(2) =   0
                l(3) =   1
                l(4) =   1
                l(5) =   2
                l(6) =   2

     PseudoPot. # 3 for H  read from file:
     /gpfs/group/ixd4/default/Simon/pseudopotentials/materialscloud/SSSP_1.3.0_PBE_efficiency/H.pbe-rrkjus_psl.1.0.0.UPF
     MD5 check sum: f52b6d4d1c606e5624b1dc7b2218f220
     Pseudo is Ultrasoft, Zval =  1.0
     Generated using "atomic" code by A. Dal Corso  v.5.1
     Using radial grid of  929 points,  2 beta functions with: 
                l(1) =   0
                l(2) =   0
     Q(r) pseudized with 0 coefficients 


     atomic species   valence    mass     pseudopotential
        O              6.00    15.99940     O ( 1.00)
        Ru            16.00   101.07000     Ru( 1.00)
        H              1.00     1.00794     H ( 1.00)

      4 Sym. Ops. (no inversion) found



   Cartesian axes

     site n.     atom                  positions (alat units)
         1           O   tau(   1) = (   0.0000000   0.4579364   0.9243578  )
         2           O   tau(   2) = (   0.5000000   0.4579388   0.9243579  )
         3           O   tau(   3) = (   0.0000000   0.0084495   1.0280628  )
         4           O   tau(   4) = (   0.5000000   0.0084597   1.0280648  )
         5           Ru  tau(   5) = (   0.2500000   0.0077949   1.2115214  )
         6           Ru  tau(   6) = (   0.7500000   0.0077949   1.2115214  )
         7           O   tau(   7) = (   0.2499970   0.2900137   1.2144335  )
         8           O   tau(   8) = (   0.7500030   0.2900137   1.2144335  )
         9           Ru  tau(   9) = (   0.0000000   0.4600858   1.1888214  )
        10           Ru  tau(  10) = (   0.5000000   0.4600854   1.1888215  )
        11           O   tau(  11) = (   0.2500030   0.6306499   1.2099096  )
        12           O   tau(  12) = (   0.7499970   0.6306499   1.2099096  )
        13           O   tau(  13) = (   0.0000000   0.0083375   1.3898000  )
        14           O   tau(  14) = (   0.5000000   0.0083416   1.3898006  )
        15           O   tau(  15) = (   0.0000000   0.4652015   1.5015053  )
        16           O   tau(  16) = (   0.5000000   0.4652019   1.5015053  )
        17           Ru  tau(  17) = (   0.0000000   0.0134152   1.6879622  )
        18           Ru  tau(  18) = (   0.5000000   0.0134138   1.6879622  )
        19           O   tau(  19) = (   0.2500009   0.1816971   1.6879622  )
        20           O   tau(  20) = (   0.7499991   0.1816971   1.6879622  )
        21           Ru  tau(  21) = (   0.2500001   0.4660010   1.6879622  )
        22           Ru  tau(  22) = (   0.7499999   0.4660010   1.6879622  )
        23           O   tau(  23) = (   0.2499986   0.7500921   1.6879622  )
        24           O   tau(  24) = (   0.7500014   0.7500921   1.6879622  )
        25           O   tau(  25) = (   0.0000000   0.4652015   1.8744156  )
        26           O   tau(  26) = (   0.5000000   0.4652019   1.8744156  )
        27           O   tau(  27) = (   0.0000000   0.0083375   1.9861210  )
        28           O   tau(  28) = (   0.5000000   0.0083416   1.9861204  )
        29           Ru  tau(  29) = (   0.2500000   0.0077949   2.1643995  )
        30           Ru  tau(  30) = (   0.7500000   0.0077949   2.1643995  )
        31           O   tau(  31) = (   0.2499970   0.2900137   2.1614874  )
        32           O   tau(  32) = (   0.7500030   0.2900137   2.1614874  )
        33           Ru  tau(  33) = (   0.0000000   0.4600858   2.1870995  )
        34           Ru  tau(  34) = (   0.5000000   0.4600854   2.1870994  )
        35           O   tau(  35) = (   0.2500030   0.6306499   2.1660113  )
        36           O   tau(  36) = (   0.7499970   0.6306499   2.1660113  )
        37           O   tau(  37) = (   0.0000000   0.0084495   2.3478615  )
        38           O   tau(  38) = (   0.5000000   0.0084597   2.3478595  )
        39           O   tau(  39) = (   0.0000000   0.4579364   2.4515631  )
        40           O   tau(  40) = (   0.5000000   0.4579388   2.4515630  )
        41           H   tau(  41) = (   0.0000000   0.0097499   0.8795853  )
        42           H   tau(  42) = (   0.0000000   0.0097499   2.4963323  )
        43           H   tau(  43) = (   0.5000000   0.0097498   0.8795839  )
        44           H   tau(  44) = (   0.5000000   0.0097498   2.4963337  )

     number of k points=     1  Marzari-Vanderbilt smearing, width (Ry)=  0.0300
                       cart. coord. in units 2pi/alat
        k(    1) = (   0.2500000   0.2763144   0.0000000), wk =   2.0000000

     Dense  grid:  1096679 G-vectors     FFT dimensions: (  90,  80, 300)

     Smooth grid:   277485 G-vectors     FFT dimensions: (  60,  54, 192)

     Estimated max dynamical RAM per process >     168.00 MB

     Estimated total dynamical RAM >       3.28 GB

     Check: negative core charge=   -0.000001

     Initial potential from superposition of free atoms

     starting charge     363.9933, renormalised to     364.0000

     add environment contribution to local potential
     Polarization accuracy = 5.2E-12, # of iterations =  22

     negative rho (up, down):  3.419E-05 0.000E+00
     Starting wfcs are  236 randomized atomic wfcs
     Checking if some PAW data can be deallocated... 

     total cpu time spent up to now is     2521.5 secs

     per-process dynamical memory:   137.2 Mb

     Self-consistent Calculation

     iteration #  1     ecut=    50.00 Ry     beta= 0.70
     Davidson diagonalization with overlap
     ethr =  1.00E-02,  avg # of iterations =  2.0

     total cpu time spent up to now is     3040.1 secs

     total energy              =   -3429.98209352 Ry
     estimated scf accuracy    <      10.49298566 Ry
     electrostatic embedding   =      -0.00175506 Ry
     cavitation energy         =       0.01968921 Ry
     PV energy                 =      -0.08342565 Ry
     correction to one-el term =     218.65441639 Ry

     iteration #  2     ecut=    50.00 Ry     beta= 0.70
     Davidson diagonalization with overlap
     ethr =  2.88E-03,  avg # of iterations =  2.0

     total cpu time spent up to now is     3526.0 secs

     total energy              =   -3432.23377726 Ry
     estimated scf accuracy    <       3.14044999 Ry
     electrostatic embedding   =      -0.00279567 Ry
     cavitation energy         =       0.01966879 Ry
     PV energy                 =      -0.08399940 Ry
     correction to one-el term =     218.65737142 Ry

     iteration #  3     ecut=    50.00 Ry     beta= 0.70
     Davidson diagonalization with overlap
     ethr =  8.63E-04,  avg # of iterations =  1.0

     total cpu time spent up to now is     3998.5 secs

     total energy              =   -3432.47062815 Ry
     estimated scf accuracy    <       1.14974488 Ry
     electrostatic embedding   =      -0.00332244 Ry
     cavitation energy         =       0.01959520 Ry
     PV energy                 =      -0.08449094 Ry
     correction to one-el term =     218.65901953 Ry

     iteration #  4     ecut=    50.00 Ry     beta= 0.70
     Davidson diagonalization with overlap
     ethr =  3.16E-04,  avg # of iterations =  1.0

     total cpu time spent up to now is     4588.1 secs

     total energy              =   -3432.54587179 Ry
     estimated scf accuracy    <       0.74326544 Ry
     electrostatic embedding   =      -0.00343345 Ry
     cavitation energy         =       0.01979109 Ry
     PV energy                 =      -0.08405572 Ry
     correction to one-el term =     218.65895839 Ry

     iteration #  5     ecut=    50.00 Ry     beta= 0.70
     Davidson diagonalization with overlap
     ethr =  2.04E-04,  avg # of iterations =  1.0

     total cpu time spent up to now is     5107.1 secs

     total energy              =   -3432.53239878 Ry
     estimated scf accuracy    <       0.47608495 Ry
     electrostatic embedding   =      -0.00368498 Ry
     cavitation energy         =       0.02006844 Ry
     PV energy                 =      -0.08356917 Ry
     correction to one-el term =     218.65926455 Ry

     iteration #  6     ecut=    50.00 Ry     beta= 0.70
     Davidson diagonalization with overlap
     ethr =  1.31E-04,  avg # of iterations =  1.0

     total cpu time spent up to now is     5596.0 secs

     total energy              =   -3432.52685437 Ry
     estimated scf accuracy    <       0.26523688 Ry
     electrostatic embedding   =      -0.00389830 Ry
     cavitation energy         =       0.02060982 Ry
     PV energy                 =      -0.08239539 Ry
     correction to one-el term =     218.65920431 Ry

     iteration #  7     ecut=    50.00 Ry     beta= 0.70
     Davidson diagonalization with overlap
     ethr =  7.29E-05,  avg # of iterations =  7.0

     total cpu time spent up to now is     6086.7 secs

     total energy              =   -3432.51989689 Ry
     estimated scf accuracy    <       0.15559194 Ry
     electrostatic embedding   =      -0.00386793 Ry
     cavitation energy         =       0.02102172 Ry
     PV energy                 =      -0.08133883 Ry
     correction to one-el term =     218.65865413 Ry

     iteration #  8     ecut=    50.00 Ry     beta= 0.70
     Davidson diagonalization with overlap
     ethr =  4.27E-05,  avg # of iterations =  7.0

     negative rho (up, down):  2.374E-08 0.000E+00

     add environment contribution to local potential
     Polarization accuracy = 8.2E-12, # of iterations =  42

     total cpu time spent up to now is     6597.8 secs

     total energy              =   -3432.51547449 Ry
     estimated scf accuracy    <       0.05555112 Ry
     electrostatic embedding   =      -0.00358990 Ry
     cavitation energy         =       0.02164457 Ry
     PV energy                 =      -0.07978060 Ry
     correction to one-el term =     218.65718369 Ry

     iteration #  9     ecut=    50.00 Ry     beta= 0.70
     Davidson diagonalization with overlap
     ethr =  1.53E-05,  avg # of iterations =  9.0

     negative rho (up, down):  7.390E-04 0.000E+00

     total cpu time spent up to now is     7095.8 secs

     total energy              =   -3432.58110306 Ry
     estimated scf accuracy    <       0.44555352 Ry
     electrostatic embedding   =      -0.06220914 Ry
     cavitation energy         =       0.02195289 Ry
     PV energy                 =      -0.07910779 Ry
     correction to one-el term =     179.03052811 Ry

     iteration # 10     ecut=    50.00 Ry     beta= 0.70
     Davidson diagonalization with overlap
     ethr =  1.53E-05,  avg # of iterations =  1.0

     negative rho (up, down):  1.160E-04 0.000E+00

     total cpu time spent up to now is     7594.6 secs

     total energy              =   -3432.56447682 Ry
     estimated scf accuracy    <       0.25676506 Ry
     electrostatic embedding   =      -0.06280161 Ry
     cavitation energy         =       0.02195338 Ry
     PV energy                 =      -0.07892612 Ry
     correction to one-el term =     179.03266744 Ry

     iteration # 11     ecut=    50.00 Ry     beta= 0.70
     Davidson diagonalization with overlap
     ethr =  1.53E-05,  avg # of iterations =  2.0

     negative rho (up, down):  1.099E-05 0.000E+00

     add environment contribution to local potential
     Polarization accuracy = 1.4E-12, # of iterations =  42

     total cpu time spent up to now is     8170.7 secs

     total energy              =   -3432.56442509 Ry
     estimated scf accuracy    <       0.03122212 Ry
     electrostatic embedding   =      -0.06427169 Ry
     cavitation energy         =       0.02161304 Ry
     PV energy                 =      -0.07900745 Ry
     correction to one-el term =     179.03696567 Ry

     iteration # 12     ecut=    50.00 Ry     beta= 0.70
     Davidson diagonalization with overlap
     ethr =  8.58E-06,  avg # of iterations = 11.0

     negative rho (up, down):  4.096E-03 0.000E+00

     add environment contribution to local potential
     Polarization accuracy = 3.0E-12, # of iterations =  43

     total cpu time spent up to now is     8775.9 secs

     total energy              =   -3432.57188136 Ry
     estimated scf accuracy    <       0.01880848 Ry
     electrostatic embedding   =      -0.07200244 Ry
     cavitation energy         =       0.02142948 Ry
     PV energy                 =      -0.07912547 Ry
     correction to one-el term =     181.39774602 Ry

     iteration # 13     ecut=    50.00 Ry     beta= 0.70
     Davidson diagonalization with overlap
     ethr =  5.17E-06,  avg # of iterations =  2.0

     negative rho (up, down):  4.155E-03 0.000E+00

     add environment contribution to local potential
     Polarization accuracy = 2.4E-12, # of iterations =  43

     total cpu time spent up to now is     9282.0 secs

     total energy              =   -3432.57612180 Ry
     estimated scf accuracy    <       0.00196940 Ry
     electrostatic embedding   =      -0.08199912 Ry
     cavitation energy         =       0.02125214 Ry
     PV energy                 =      -0.07904260 Ry
     correction to one-el term =     182.29771830 Ry

     iteration # 14     ecut=    50.00 Ry     beta= 0.70
     Davidson diagonalization with overlap
     ethr =  5.41E-07,  avg # of iterations = 10.0

     negative rho (up, down):  9.879E-04 0.000E+00

     add environment contribution to local potential
     Polarization accuracy = 7.2E-12, # of iterations =  41

     total cpu time spent up to now is     9940.9 secs

     total energy              =   -3432.57674112 Ry
     estimated scf accuracy    <       0.01143481 Ry
     electrostatic embedding   =      -0.09068195 Ry
     cavitation energy         =       0.02107572 Ry
     PV energy                 =      -0.07914882 Ry
     correction to one-el term =     183.03650114 Ry

     iteration # 15     ecut=    50.00 Ry     beta= 0.70
     Davidson diagonalization with overlap
     ethr =  5.41E-07,  avg # of iterations =  6.0

     add environment contribution to local potential
     Polarization accuracy = 5.4E-12, # of iterations =  41

     total cpu time spent up to now is    10407.9 secs

     total energy              =   -3432.57638132 Ry
     estimated scf accuracy    <       0.00775772 Ry
     electrostatic embedding   =      -0.09184692 Ry
     cavitation energy         =       0.02102728 Ry
     PV energy                 =      -0.07927675 Ry
     correction to one-el term =     183.47402949 Ry

     iteration # 16     ecut=    50.00 Ry     beta= 0.70
     Davidson diagonalization with overlap
     ethr =  5.41E-07,  avg # of iterations =  7.0

     add environment contribution to local potential
     Polarization accuracy = 6.5E-12, # of iterations =  41

     total cpu time spent up to now is    11111.6 secs

     total energy              =   -3432.57664711 Ry
     estimated scf accuracy    <       0.00165307 Ry
     electrostatic embedding   =      -0.08976606 Ry
     cavitation energy         =       0.02104378 Ry
     PV energy                 =      -0.07935867 Ry
     correction to one-el term =     183.71218970 Ry

     iteration # 17     ecut=    50.00 Ry     beta= 0.70
     Davidson diagonalization with overlap
     ethr =  4.54E-07,  avg # of iterations =  6.0

     negative rho (up, down):  3.880E-04 0.000E+00

     add environment contribution to local potential
     Polarization accuracy = 6.7E-12, # of iterations =  40

     total cpu time spent up to now is    11630.8 secs

     total energy              =   -3432.57659356 Ry
     estimated scf accuracy    <       0.00113896 Ry
     electrostatic embedding   =      -0.08882175 Ry
     cavitation energy         =       0.02102751 Ry
     PV energy                 =      -0.07940480 Ry
     correction to one-el term =     183.96964659 Ry

     iteration # 18     ecut=    50.00 Ry     beta= 0.70
     Davidson diagonalization with overlap
     ethr =  3.13E-07,  avg # of iterations =  7.0

     negative rho (up, down):  4.548E-04 0.000E+00

     add environment contribution to local potential
     Polarization accuracy = 7.8E-12, # of iterations =  40

     total cpu time spent up to now is    12185.3 secs

     total energy              =   -3432.57676168 Ry
     estimated scf accuracy    <       0.00003702 Ry
     electrostatic embedding   =      -0.08582741 Ry
     cavitation energy         =       0.02102145 Ry
     PV energy                 =      -0.07948373 Ry
     correction to one-el term =     184.40507944 Ry

     iteration # 19     ecut=    50.00 Ry     beta= 0.70
     Davidson diagonalization with overlap
     ethr =  1.02E-08,  avg # of iterations =  2.0

     negative rho (up, down):  3.287E-04 0.000E+00

     add environment contribution to local potential
     Polarization accuracy = 8.3E-12, # of iterations =  40

     total cpu time spent up to now is    12806.0 secs

     total energy              =   -3432.57677362 Ry
     estimated scf accuracy    <       0.00003779 Ry
     electrostatic embedding   =      -0.08564222 Ry
     cavitation energy         =       0.02101916 Ry
     PV energy                 =      -0.07947546 Ry
     correction to one-el term =     184.47725413 Ry

     iteration # 20     ecut=    50.00 Ry     beta= 0.70
     Davidson diagonalization with overlap
     ethr =  1.02E-08,  avg # of iterations =  2.0

     negative rho (up, down):  2.700E-04 0.000E+00

     add environment contribution to local potential
     Polarization accuracy = 7.8E-12, # of iterations =  40

     total cpu time spent up to now is    13328.7 secs

     total energy              =   -3432.57678489 Ry
     estimated scf accuracy    <       0.00002172 Ry
     electrostatic embedding   =      -0.08515434 Ry
     cavitation energy         =       0.02102028 Ry
     PV energy                 =      -0.07946958 Ry
     correction to one-el term =     184.54443597 Ry

     iteration # 21     ecut=    50.00 Ry     beta= 0.70
     Davidson diagonalization with overlap
     ethr =  5.97E-09,  avg # of iterations =  5.0

     negative rho (up, down):  1.514E-04 0.000E+00

     add environment contribution to local potential
     Polarization accuracy = 8.5E-12, # of iterations =  40

     total cpu time spent up to now is    13809.4 secs

     total energy              =   -3432.57679870 Ry
     estimated scf accuracy    <       0.00000499 Ry
     electrostatic embedding   =      -0.08418876 Ry
     cavitation energy         =       0.02102254 Ry
     PV energy                 =      -0.07945997 Ry
     correction to one-el term =     184.67626271 Ry

     iteration # 22     ecut=    50.00 Ry     beta= 0.70
     Davidson diagonalization with overlap
     ethr =  1.37E-09,  avg # of iterations =  2.0

     negative rho (up, down):  1.513E-04 0.000E+00

     add environment contribution to local potential
     Polarization accuracy = 8.8E-12, # of iterations =  40

     total cpu time spent up to now is    14091.6 secs

     total energy              =   -3432.57680244 Ry
     estimated scf accuracy    <       0.00000023 Ry
     electrostatic embedding   =      -0.08391909 Ry
     cavitation energy         =       0.02102538 Ry
     PV energy                 =      -0.07945197 Ry
     correction to one-el term =     184.69556553 Ry

     iteration # 23     ecut=    50.00 Ry     beta= 0.70
     Davidson diagonalization with overlap
     ethr =  6.26E-11,  avg # of iterations =  9.0

     negative rho (up, down):  1.368E-04 0.000E+00

     add environment contribution to local potential
     Polarization accuracy = 8.3E-12, # of iterations =  40

     total cpu time spent up to now is    14258.0 secs

     total energy              =   -3432.57680357 Ry
     estimated scf accuracy    <       0.00000015 Ry
     electrostatic embedding   =      -0.08384959 Ry
     cavitation energy         =       0.02102551 Ry
     PV energy                 =      -0.07945043 Ry
     correction to one-el term =     184.70141524 Ry

     iteration # 24     ecut=    50.00 Ry     beta= 0.70
     Davidson diagonalization with overlap
     ethr =  4.18E-11,  avg # of iterations =  2.0

     negative rho (up, down):  1.443E-04 0.000E+00

     add environment contribution to local potential
     Polarization accuracy = 8.1E-12, # of iterations =  40

     total cpu time spent up to now is    14425.4 secs

     total energy              =   -3432.57680417 Ry
     estimated scf accuracy    <       0.00000011 Ry
     electrostatic embedding   =      -0.08380346 Ry
     cavitation energy         =       0.02102580 Ry
     PV energy                 =      -0.07944974 Ry
     correction to one-el term =     184.70428590 Ry

     iteration # 25     ecut=    50.00 Ry     beta= 0.70
     Davidson diagonalization with overlap
     ethr =  3.01E-11,  avg # of iterations =  2.0

     negative rho (up, down):  1.650E-04 0.000E+00

     add environment contribution to local potential
     Polarization accuracy = 8.1E-12, # of iterations =  40

     total cpu time spent up to now is    14576.7 secs

     total energy              =   -3432.57680488 Ry
     estimated scf accuracy    <       0.00000009 Ry
     electrostatic embedding   =      -0.08375479 Ry
     cavitation energy         =       0.02102590 Ry
     PV energy                 =      -0.07945019 Ry
     correction to one-el term =     184.70899140 Ry

     iteration # 26     ecut=    50.00 Ry     beta= 0.70
     Davidson diagonalization with overlap
     ethr =  2.47E-11,  avg # of iterations =  2.0

     negative rho (up, down):  1.588E-04 0.000E+00

     add environment contribution to local potential
     Polarization accuracy = 7.8E-12, # of iterations =  40

     total cpu time spent up to now is    14713.2 secs

     total energy              =   -3432.57680565 Ry
     estimated scf accuracy    <       0.00000007 Ry
     electrostatic embedding   =      -0.08370163 Ry
     cavitation energy         =       0.02102590 Ry
     PV energy                 =      -0.07945137 Ry
     correction to one-el term =     184.71622977 Ry

     iteration # 27     ecut=    50.00 Ry     beta= 0.70
     Davidson diagonalization with overlap
     ethr =  2.03E-11,  avg # of iterations =  2.0

     negative rho (up, down):  1.616E-04 0.000E+00

     add environment contribution to local potential
     Polarization accuracy = 8.1E-12, # of iterations =  40

     total cpu time spent up to now is    14844.5 secs

     total energy              =   -3432.57680639 Ry
     estimated scf accuracy    <       0.00000007 Ry
     electrostatic embedding   =      -0.08366232 Ry
     cavitation energy         =       0.02102621 Ry
     PV energy                 =      -0.07945147 Ry
     correction to one-el term =     184.71916010 Ry

     iteration # 28     ecut=    50.00 Ry     beta= 0.70
     Davidson diagonalization with overlap
     ethr =  1.80E-11,  avg # of iterations =  2.0

     negative rho (up, down):  1.497E-04 0.000E+00

     add environment contribution to local potential
     Polarization accuracy = 7.5E-12, # of iterations =  40

     total cpu time spent up to now is    15005.5 secs

     total energy              =   -3432.57680695 Ry
     estimated scf accuracy    <       0.00000006 Ry
     electrostatic embedding   =      -0.08363960 Ry
     cavitation energy         =       0.02102634 Ry
     PV energy                 =      -0.07945169 Ry
     correction to one-el term =     184.72191852 Ry

     iteration # 29     ecut=    50.00 Ry     beta= 0.70
     Davidson diagonalization with overlap
     ethr =  1.66E-11,  avg # of iterations =  2.0

     negative rho (up, down):  1.427E-04 0.000E+00

     add environment contribution to local potential
     Polarization accuracy = 8.0E-12, # of iterations =  40

     total cpu time spent up to now is    15148.0 secs

     total energy              =   -3432.57680812 Ry
     estimated scf accuracy    <       0.00000006 Ry
     electrostatic embedding   =      -0.08362193 Ry
     cavitation energy         =       0.02102665 Ry
     PV energy                 =      -0.07945184 Ry
     correction to one-el term =     184.72268086 Ry

     iteration # 30     ecut=    50.00 Ry     beta= 0.70
     Davidson diagonalization with overlap
     ethr =  1.66E-11,  avg # of iterations =  2.0

     negative rho (up, down):  1.282E-04 0.000E+00

     add environment contribution to local potential
     Polarization accuracy = 7.5E-12, # of iterations =  40

     total cpu time spent up to now is    15304.6 secs

     total energy              =   -3432.57680916 Ry
     estimated scf accuracy    <       0.00000006 Ry
     electrostatic embedding   =      -0.08359914 Ry
     cavitation energy         =       0.02102689 Ry
     PV energy                 =      -0.07945151 Ry
     correction to one-el term =     184.72444190 Ry

     iteration # 31     ecut=    50.00 Ry     beta= 0.70
     Davidson diagonalization with overlap
     ethr =  1.53E-11,  avg # of iterations =  2.0

     negative rho (up, down):  1.132E-04 0.000E+00

     add environment contribution to local potential
     Polarization accuracy = 7.5E-12, # of iterations =  40

     total cpu time spent up to now is    15440.0 secs

     total energy              =   -3432.57681098 Ry
     estimated scf accuracy    <       0.00000004 Ry
     electrostatic embedding   =      -0.08359559 Ry
     cavitation energy         =       0.02102715 Ry
     PV energy                 =      -0.07945123 Ry
     correction to one-el term =     184.72349127 Ry

     iteration # 32     ecut=    50.00 Ry     beta= 0.70
     Davidson diagonalization with overlap
     ethr =  1.16E-11,  avg # of iterations =  5.0

     negative rho (up, down):  1.135E-04 0.000E+00

     add environment contribution to local potential
     Polarization accuracy = 7.7E-12, # of iterations =  40

     total cpu time spent up to now is    15579.6 secs

     total energy              =   -3432.57681681 Ry
     estimated scf accuracy    <       0.00000002 Ry
     electrostatic embedding   =      -0.08364925 Ry
     cavitation energy         =       0.02102694 Ry
     PV energy                 =      -0.07945044 Ry
     correction to one-el term =     184.71589280 Ry

     iteration # 33     ecut=    50.00 Ry     beta= 0.70
     Davidson diagonalization with overlap
     ethr =  5.97E-12,  avg # of iterations =  5.0

     negative rho (up, down):  1.232E-04 0.000E+00

     add environment contribution to local potential
     Polarization accuracy = 7.2E-12, # of iterations =  40

     total cpu time spent up to now is    15719.3 secs

     total energy              =   -3432.57682246 Ry
     estimated scf accuracy    <       0.00000002 Ry
     electrostatic embedding   =      -0.08364182 Ry
     cavitation energy         =       0.02102695 Ry
     PV energy                 =      -0.07945062 Ry
     correction to one-el term =     184.71626577 Ry

     iteration # 34     ecut=    50.00 Ry     beta= 0.70
     Davidson diagonalization with overlap
     ethr =  5.03E-12,  avg # of iterations =  2.0

     negative rho (up, down):  1.263E-04 0.000E+00

     add environment contribution to local potential
     Polarization accuracy = 7.2E-12, # of iterations =  40

     total cpu time spent up to now is    15865.9 secs

     total energy              =   -3432.57682651 Ry
     estimated scf accuracy    <          7.0E-09 Ry
     electrostatic embedding   =      -0.08365636 Ry
     cavitation energy         =       0.02102671 Ry
     PV energy                 =      -0.07945093 Ry
     correction to one-el term =     184.71571082 Ry

     iteration # 35     ecut=    50.00 Ry     beta= 0.70
     Davidson diagonalization with overlap
     ethr =  1.93E-12,  avg # of iterations =  5.0

     negative rho (up, down):  1.416E-04 0.000E+00

     add environment contribution to local potential
     Polarization accuracy = 6.5E-12, # of iterations =  40

     total cpu time spent up to now is    15989.1 secs

     total energy              =   -3432.57682756 Ry
     estimated scf accuracy    <          2.8E-09 Ry
     electrostatic embedding   =      -0.08366235 Ry
     cavitation energy         =       0.02102667 Ry
     PV energy                 =      -0.07945094 Ry
     correction to one-el term =     184.71555041 Ry

     iteration # 36     ecut=    50.00 Ry     beta= 0.70
     Davidson diagonalization with overlap
     ethr =  7.75E-13,  avg # of iterations =  5.0

     negative rho (up, down):  1.464E-04 0.000E+00

     add environment contribution to local potential
     Polarization accuracy = 7.1E-12, # of iterations =  40

     total cpu time spent up to now is    16127.5 secs

     total energy              =   -3432.57682929 Ry
     estimated scf accuracy    <          2.0E-09 Ry
     electrostatic embedding   =      -0.08365995 Ry
     cavitation energy         =       0.02102651 Ry
     PV energy                 =      -0.07945135 Ry
     correction to one-el term =     184.71761970 Ry

     iteration # 37     ecut=    50.00 Ry     beta= 0.70
     Davidson diagonalization with overlap
     ethr =  5.38E-13,  avg # of iterations =  2.0

     negative rho (up, down):  1.491E-04 0.000E+00

     the potential shift due to the Gaussian-smeared nuclei is    -1.3393 ev

     total cpu time spent up to now is    16258.5 secs

     End of self-consistent calculation

          k = 0.2500 0.2763 0.0000 ( 34692 PWs)   bands (ev):

   -77.7698 -77.7661 -77.7563 -77.7525 -77.0564 -77.0528 -77.0433 -77.0398
   -76.8816 -76.8771 -76.8729 -76.8699 -48.2496 -48.2448 -48.2360 -48.2312
   -47.7910 -47.7774 -47.7057 -47.6921 -47.4953 -47.4822 -47.4789 -47.4658
   -47.3506 -47.3475 -47.3371 -47.3339 -47.2444 -47.2414 -47.0307 -47.0296
   -46.9920 -46.9877 -46.9735 -46.9162 -46.9060 -46.9001 -46.8211 -46.8095
   -46.8078 -46.7964 -46.7841 -46.7419 -46.7243 -46.7051 -46.6848 -46.6730
   -23.7417 -23.6607 -23.4174 -23.3004 -23.2764 -23.2675 -23.2491 -23.0815
   -23.0518 -22.9372 -22.4475 -22.4017 -22.3971 -22.3858 -22.3067 -22.2550
   -22.2172 -22.1254 -22.0787 -22.0257 -21.9809 -21.9463 -21.8730 -21.7619
   -21.4433 -21.3013 -21.2578 -21.1705 -12.1547 -11.9036 -11.8348 -11.8060
   -11.6579 -11.4955 -11.4204 -11.1805 -11.1515 -11.0312 -10.9071 -10.8601
   -10.8467 -10.8345 -10.7349 -10.6166 -10.6013 -10.4836 -10.2787 -10.2651
   -10.2629 -10.2051 -10.1200  -9.9631  -9.8905  -9.7607  -9.6905  -9.6889
    -9.5661  -9.1849  -9.1678  -9.1158  -9.0224  -8.9614  -8.9496  -8.8996
    -8.8908  -8.7586  -8.6713  -8.6299  -8.6217  -8.5500  -8.5418  -8.3748
    -8.3298  -8.0788  -7.9208  -7.8520  -7.8462  -7.8299  -7.8111  -7.7436
    -7.7400  -7.6513  -7.6375  -7.6230  -7.5879  -7.4875  -7.4784  -7.4653
    -7.3962  -7.3370  -7.1719  -7.1626  -7.0691  -6.9825  -6.8488  -6.7228
    -6.7007  -6.5813  -6.4940  -6.4819  -6.4237  -6.2740  -6.2470  -6.1800
    -6.1760  -6.0479  -6.0188  -5.9662  -5.8755  -5.8139  -5.7780  -5.5705
    -4.7772  -4.7583  -4.4404  -4.4182  -4.3906  -4.3856  -4.3360  -4.2936
    -4.2795  -4.2175  -4.1794  -4.1708  -4.0709  -4.0327  -4.0222  -3.9328
    -3.8532  -3.8129  -3.7847  -3.7379  -3.6861  -3.6634  -3.3387  -3.2715
    -3.2574  -3.1752  -3.1524  -3.0689  -2.7999  -2.7236  -2.7062  -2.6636
    -2.5748  -2.5604  -2.2994  -2.2281  -1.6562  -1.5428  -1.5283  -1.2617
    -1.2504  -1.1053  -0.5593  -0.1878  -0.0044   0.1259   0.1373   0.1622
     0.2760   0.4700   0.4873   0.6842   0.8092   0.8858   1.0243   1.2512
     1.2729   1.3420

     the Fermi energy is    -3.5267 ev

!    total energy              =   -3432.57682976 Ry
     estimated scf accuracy    <          7.9E-10 Ry
     smearing contrib. (-TS)   =       0.05761056 Ry
     internal energy E=F+TS    =   -3432.63444032 Ry

     The total energy is F=E-TS. E is the sum of the following terms:
     one-electron contribution =  -25803.97010426 Ry
     hartree contribution      =   12889.93678188 Ry
     xc contribution           =    -446.61668681 Ry
     ewald contribution        =   10009.97397320 Ry
     one-center paw contrib.   =    -266.53502973 Ry
     electrostatic embedding   =      -0.08365593 Ry
     cavitation energy         =       0.02102650 Ry
     PV energy                 =      -0.07945144 Ry
     correction to one-el term =     184.71870629 Ry

     WARNING: you are using the parabolic pbc correction;
              the potential shift above must be added to 
              band and Fermi energies.

     convergence has been achieved in  37 iterations

     negative rho (up, down):  1.491E-04 0.000E+00

     Forces acting on atoms (cartesian axes, Ry/au):

     atom    1 type  1   force =     0.00000000   -0.00001182   -0.00022224
     atom    2 type  1   force =     0.00000000   -0.00001724   -0.00021940
     atom    3 type  1   force =     0.00000000   -0.00004676    0.00107734
     atom    4 type  1   force =     0.00000000   -0.00005392    0.00103251
     atom    5 type  2   force =    -0.00000057    0.00028528   -0.00027748
     atom    6 type  2   force =     0.00000057    0.00028528   -0.00027748
     atom    7 type  1   force =     0.00000666    0.00034680    0.00004798
     atom    8 type  1   force =    -0.00000666    0.00034680    0.00004798
     atom    9 type  2   force =     0.00000000    0.00026542   -0.00025563
     atom   10 type  2   force =     0.00000000    0.00026281   -0.00025704
     atom   11 type  1   force =    -0.00000688    0.00019974    0.00037658
     atom   12 type  1   force =     0.00000688    0.00019974    0.00037658
     atom   13 type  1   force =     0.00000000   -0.00009268   -0.00041615
     atom   14 type  1   force =     0.00000000   -0.00009700   -0.00041883
     atom   15 type  1   force =     0.00000000   -0.00062922    0.00006904
     atom   16 type  1   force =     0.00000000   -0.00063117    0.00006909
     atom   17 type  2   force =     0.00000000   -0.00017798    0.00000000
     atom   18 type  2   force =     0.00000000   -0.00017406    0.00000000
     atom   19 type  1   force =    -0.00000208   -0.00021902    0.00000000
     atom   20 type  1   force =     0.00000208   -0.00021902    0.00000000
     atom   21 type  2   force =    -0.00000042   -0.00025174    0.00000000
     atom   22 type  2   force =     0.00000042   -0.00025174    0.00000000
     atom   23 type  1   force =     0.00000231   -0.00009478    0.00000000
     atom   24 type  1   force =    -0.00000231   -0.00009478    0.00000000
     atom   25 type  1   force =     0.00000000   -0.00062922   -0.00006904
     atom   26 type  1   force =     0.00000000   -0.00063117   -0.00006909
     atom   27 type  1   force =     0.00000000   -0.00009268    0.00041615
     atom   28 type  1   force =     0.00000000   -0.00009700    0.00041883
     atom   29 type  2   force =    -0.00000057    0.00028528    0.00027748
     atom   30 type  2   force =     0.00000057    0.00028528    0.00027748
     atom   31 type  1   force =     0.00000666    0.00034680   -0.00004798
     atom   32 type  1   force =    -0.00000666    0.00034680   -0.00004798
     atom   33 type  2   force =     0.00000000    0.00026542    0.00025563
     atom   34 type  2   force =     0.00000000    0.00026281    0.00025704
     atom   35 type  1   force =    -0.00000688    0.00019974   -0.00037658
     atom   36 type  1   force =     0.00000688    0.00019974   -0.00037658
     atom   37 type  1   force =     0.00000000   -0.00004676   -0.00107734
     atom   38 type  1   force =     0.00000000   -0.00005392   -0.00103251
     atom   39 type  1   force =     0.00000000   -0.00001182    0.00022224
     atom   40 type  1   force =     0.00000000   -0.00001724    0.00021940
     atom   41 type  3   force =     0.00000000    0.00006537   -0.00095672
     atom   42 type  3   force =     0.00000000    0.00006537    0.00095672
     atom   43 type  3   force =     0.00000000    0.00006414   -0.00091732
     atom   44 type  3   force =     0.00000000    0.00006414    0.00091732
     The non-local contrib.  to forces
     atom    1 type  1   force =     0.00000000    0.01096683    1.22903449
     atom    2 type  1   force =     0.00000000    0.01094656    1.22903693
     atom    3 type  1   force =     0.00000000    0.01496201   -0.99850835
     atom    4 type  1   force =     0.00000000    0.01472932   -0.99850600
     atom    5 type  2   force =    -0.00000130    0.00124852    0.03137691
     atom    6 type  2   force =     0.00000130    0.00124852    0.03137691
     atom    7 type  1   force =    -0.00002877   -0.04689584   -0.14201978
     atom    8 type  1   force =     0.00002877   -0.04689584   -0.14201978
     atom    9 type  2   force =     0.00000000   -0.00000933   -0.04407752
     atom   10 type  2   force =     0.00000000   -0.00002663   -0.04407833
     atom   11 type  1   force =     0.00002930    0.04913815   -0.09649365
     atom   12 type  1   force =    -0.00002930    0.04913815   -0.09649365
     atom   13 type  1   force =     0.00000000    0.01210850   -0.00608656
     atom   14 type  1   force =     0.00000000    0.01206676   -0.00608536
     atom   15 type  1   force =     0.00000000   -0.00734858    0.17379900
     atom   16 type  1   force =     0.00000000   -0.00735989    0.17380090
     atom   17 type  2   force =     0.00000000    0.00179022    0.00000000
     atom   18 type  2   force =     0.00000000    0.00177788    0.00000000
     atom   19 type  1   force =     0.00000182    0.09489482    0.00000000
     atom   20 type  1   force =    -0.00000182    0.09489482    0.00000000
     atom   21 type  2   force =     0.00000019   -0.00157183    0.00000000
     atom   22 type  2   force =    -0.00000019   -0.00157183    0.00000000
     atom   23 type  1   force =    -0.00000011   -0.09842442    0.00000000
     atom   24 type  1   force =     0.00000011   -0.09842442    0.00000000
     atom   25 type  1   force =     0.00000000   -0.00734858   -0.17379900
     atom   26 type  1   force =     0.00000000   -0.00735989   -0.17380090
     atom   27 type  1   force =     0.00000000    0.01210850    0.00608656
     atom   28 type  1   force =     0.00000000    0.01206676    0.00608536
     atom   29 type  2   force =    -0.00000130    0.00124852   -0.03137691
     atom   30 type  2   force =     0.00000130    0.00124852   -0.03137691
     atom   31 type  1   force =    -0.00002877   -0.04689584    0.14201978
     atom   32 type  1   force =     0.00002877   -0.04689584    0.14201978
     atom   33 type  2   force =     0.00000000   -0.00000933    0.04407752
     atom   34 type  2   force =     0.00000000   -0.00002663    0.04407833
     atom   35 type  1   force =     0.00002930    0.04913815    0.09649365
     atom   36 type  1   force =    -0.00002930    0.04913815    0.09649365
     atom   37 type  1   force =     0.00000000    0.01496201    0.99850835
     atom   38 type  1   force =     0.00000000    0.01472932    0.99850600
     atom   39 type  1   force =     0.00000000    0.01096683   -1.22903449
     atom   40 type  1   force =     0.00000000    0.01094656   -1.22903693
     atom   41 type  3   force =     0.00000000   -0.00097062    0.11249797
     atom   42 type  3   force =     0.00000000   -0.00097062   -0.11249797
     atom   43 type  3   force =     0.00000000   -0.00096303    0.11248944
     atom   44 type  3   force =     0.00000000   -0.00096303   -0.11248944
     The ionic contribution  to forces
     atom    1 type  1   force =    -0.00000000   -0.06892293 -102.04892403
     atom    2 type  1   force =     0.00000000   -0.06876805 -102.04893651
     atom    3 type  1   force =     0.00000000   -0.03856945  -91.51982745
     atom    4 type  1   force =     0.00000000   -0.03820246  -91.51994422
     atom    5 type  2   force =    -0.00007974   -0.03580770 -172.42162897
     atom    6 type  2   force =     0.00007974   -0.03580770 -172.42162897
     atom    7 type  1   force =     0.00019429    0.05776270  -62.51644522
     atom    8 type  1   force =    -0.00019429    0.05776270  -62.51644522
     atom    9 type  2   force =    -0.00000000   -0.00825785 -174.98316501
     atom   10 type  2   force =    -0.00000000   -0.00934504 -174.98311958
     atom   11 type  1   force =    -0.00021626   -0.03165122  -63.53395762
     atom   12 type  1   force =     0.00021626   -0.03165122  -63.53395762
     atom   13 type  1   force =    -0.00000000   -0.08542907  -38.78143061
     atom   14 type  1   force =     0.00000000   -0.08518746  -38.78140451
     atom   15 type  1   force =    -0.00000000    0.03354430  -27.07786515
     atom   16 type  1   force =    -0.00000000    0.03355645  -27.07786497
     atom   17 type  2   force =    -0.00000000    0.37286223   -0.00044659
     atom   18 type  2   force =    -0.00000000    0.37221702   -0.00044659
     atom   19 type  1   force =    -0.00002950    0.81786394   -0.00008117
     atom   20 type  1   force =     0.00002950    0.81786394   -0.00008117
     atom   21 type  2   force =    -0.00000614   -0.05456856   -0.00023947
     atom   22 type  2   force =     0.00000614   -0.05456856   -0.00023947
     atom   23 type  1   force =     0.00007097   -0.81648471   -0.00008248
     atom   24 type  1   force =    -0.00007097   -0.81648471   -0.00008248
     atom   25 type  1   force =    -0.00000000    0.03354397   27.07766600
     atom   26 type  1   force =    -0.00000000    0.03355613   27.07766582
     atom   27 type  1   force =     0.00000000   -0.08543555   38.78173836
     atom   28 type  1   force =     0.00000000   -0.08519393   38.78171227
     atom   29 type  2   force =    -0.00007974   -0.03580793  172.42188576
     atom   30 type  2   force =     0.00007974   -0.03580793  172.42188576
     atom   31 type  1   force =     0.00019429    0.05773753   62.51651295
     atom   32 type  1   force =    -0.00019429    0.05773753   62.51651295
     atom   33 type  2   force =    -0.00000000   -0.00825774  174.98330774
     atom   34 type  2   force =    -0.00000000   -0.00934494  174.98326231
     atom   35 type  1   force =    -0.00021626   -0.03162574   63.53402415
     atom   36 type  1   force =     0.00021626   -0.03162574   63.53402415
     atom   37 type  1   force =     0.00000000   -0.03857503   91.51960432
     atom   38 type  1   force =     0.00000000   -0.03820802   91.51972112
     atom   39 type  1   force =     0.00000000   -0.06892226  102.04898464
     atom   40 type  1   force =    -0.00000000   -0.06876737  102.04899712
     atom   41 type  3   force =     0.00000000    0.01792774  -18.57736164
     atom   42 type  3   force =    -0.00000000    0.01793201   18.57773148
     atom   43 type  3   force =     0.00000000    0.01770322  -18.57719104
     atom   44 type  3   force =    -0.00000000    0.01770745   18.57756086
     The local contribution  to forces
     atom    1 type  1   force =    -0.00000000    0.06159995  100.73351807
     atom    2 type  1   force =    -0.00000000    0.06145579  100.73353053
     atom    3 type  1   force =    -0.00000000    0.02276309   92.60581408
     atom    4 type  1   force =     0.00000000    0.02262891   92.60588639
     atom    5 type  2   force =     0.00008155    0.03378045  172.44977605
     atom    6 type  2   force =    -0.00008155    0.03378045  172.44977605
     atom    7 type  1   force =    -0.00016165    0.01054979   62.64582894
     atom    8 type  1   force =     0.00016165    0.01054979   62.64582894
     atom    9 type  2   force =    -0.00000000    0.00975839  174.95900881
     atom   10 type  2   force =    -0.00000000    0.01085941  174.95897741
     atom   11 type  1   force =     0.00017740   -0.03868786   63.61753839
     atom   12 type  1   force =    -0.00017740   -0.03868786   63.61753839
     atom   13 type  1   force =     0.00000000    0.07326038   38.79303926
     atom   14 type  1   force =     0.00000000    0.07305620   38.79302343
     atom   15 type  1   force =    -0.00000000   -0.02694451   26.90248045
     atom   16 type  1   force =     0.00000000   -0.02694747   26.90248464
     atom   17 type  2   force =    -0.00000000   -0.37472837   -0.00585787
     atom   18 type  2   force =     0.00000000   -0.37406694   -0.00585787
     atom   19 type  1   force =     0.00003854   -0.91092979   -0.00247193
     atom   20 type  1   force =    -0.00003854   -0.91092979   -0.00247193
     atom   21 type  2   force =     0.00001529    0.05578264   -0.00607789
     atom   22 type  2   force =    -0.00001529    0.05578264   -0.00607789
     atom   23 type  1   force =    -0.00005562    0.91276393   -0.00246908
     atom   24 type  1   force =     0.00005562    0.91276393   -0.00246908
     atom   25 type  1   force =     0.00000000   -0.02695060  -26.90428241
     atom   26 type  1   force =    -0.00000000   -0.02695356  -26.90428659
     atom   27 type  1   force =    -0.00000000    0.07325404  -38.79481466
     atom   28 type  1   force =     0.00000000    0.07304986  -38.79479882
     atom   29 type  2   force =     0.00008156    0.03377460 -172.45587617
     atom   30 type  2   force =    -0.00008156    0.03377460 -172.45587617
     atom   31 type  1   force =    -0.00016165    0.01058481  -62.64829685
     atom   32 type  1   force =     0.00016165    0.01058481  -62.64829685
     atom   33 type  2   force =     0.00000000    0.00975373 -174.96480075
     atom   34 type  2   force =     0.00000000    0.01085474 -174.96476936
     atom   35 type  1   force =     0.00017740   -0.03872321  -63.62000822
     atom   36 type  1   force =    -0.00017740   -0.03872321  -63.62000822
     atom   37 type  1   force =    -0.00000000    0.02276735  -92.60952993
     atom   38 type  1   force =    -0.00000000    0.02263317  -92.60960227
     atom   39 type  1   force =    -0.00000000    0.06159567 -100.73490545
     atom   40 type  1   force =     0.00000000    0.06145152 -100.73491790
     atom   41 type  3   force =    -0.00000000   -0.01688489   18.51379324
     atom   42 type  3   force =    -0.00000000   -0.01688489  -18.51379324
     atom   43 type  3   force =     0.00000000   -0.01666690   18.51367253
     atom   44 type  3   force =     0.00000000   -0.01666690  -18.51367253
     The core correction contribution to forces
     atom    1 type  1   force =     0.00000000   -0.00010169   -0.01042760
     atom    2 type  1   force =     0.00000000   -0.00010149   -0.01042760
     atom    3 type  1   force =     0.00000000   -0.00015115    0.00967034
     atom    4 type  1   force =    -0.00000000   -0.00014865    0.00967081
     atom    5 type  2   force =     0.00000000    0.00000000    0.00000000
     atom    6 type  2   force =     0.00000000    0.00000000    0.00000000
     atom    7 type  1   force =     0.00000028   -0.00040856    0.00145502
     atom    8 type  1   force =    -0.00000028   -0.00040856    0.00145502
     atom    9 type  2   force =     0.00000000    0.00000000    0.00000000
     atom   10 type  2   force =     0.00000000    0.00000000    0.00000000
     atom   11 type  1   force =    -0.00000028    0.00039391    0.00099278
     atom   12 type  1   force =     0.00000028    0.00039391    0.00099278
     atom   13 type  1   force =    -0.00000000   -0.00011421    0.00012916
     atom   14 type  1   force =     0.00000000   -0.00011376    0.00012918
     atom   15 type  1   force =     0.00000000    0.00006424   -0.00216441
     atom   16 type  1   force =    -0.00000000    0.00006438   -0.00216444
     atom   17 type  2   force =     0.00000000    0.00000000    0.00000000
     atom   18 type  2   force =     0.00000000    0.00000000    0.00000000
     atom   19 type  1   force =    -0.00000004   -0.00046796   -0.00000207
     atom   20 type  1   force =     0.00000004   -0.00046796   -0.00000207
     atom   21 type  2   force =     0.00000000    0.00000000    0.00000000
     atom   22 type  2   force =     0.00000000    0.00000000    0.00000000
     atom   23 type  1   force =    -0.00000003    0.00050223   -0.00000204
     atom   24 type  1   force =     0.00000003    0.00050223   -0.00000204
     atom   25 type  1   force =    -0.00000000    0.00006421    0.00216232
     atom   26 type  1   force =     0.00000000    0.00006436    0.00216235
     atom   27 type  1   force =    -0.00000000   -0.00011426   -0.00013126
     atom   28 type  1   force =    -0.00000000   -0.00011382   -0.00013128
     atom   29 type  2   force =     0.00000000    0.00000000    0.00000000
     atom   30 type  2   force =     0.00000000    0.00000000    0.00000000
     atom   31 type  1   force =     0.00000028   -0.00040851   -0.00145671
     atom   32 type  1   force =    -0.00000028   -0.00040851   -0.00145671
     atom   33 type  2   force =     0.00000000    0.00000000    0.00000000
     atom   34 type  2   force =     0.00000000    0.00000000    0.00000000
     atom   35 type  1   force =    -0.00000028    0.00039385   -0.00099448
     atom   36 type  1   force =     0.00000028    0.00039385   -0.00099448
     atom   37 type  1   force =     0.00000000   -0.00015118   -0.00967629
     atom   38 type  1   force =    -0.00000000   -0.00014868   -0.00967675
     atom   39 type  1   force =     0.00000000   -0.00010167    0.01042578
     atom   40 type  1   force =     0.00000000   -0.00010147    0.01042579
     atom   41 type  3   force =     0.00000000    0.00000000    0.00000000
     atom   42 type  3   force =     0.00000000    0.00000000    0.00000000
     atom   43 type  3   force =     0.00000000    0.00000000    0.00000000
     atom   44 type  3   force =     0.00000000    0.00000000    0.00000000
     The Hubbard contrib.    to forces
     atom    1 type  1   force =     0.00000000    0.00000000    0.00000000
     atom    2 type  1   force =     0.00000000    0.00000000    0.00000000
     atom    3 type  1   force =     0.00000000    0.00000000    0.00000000
     atom    4 type  1   force =     0.00000000    0.00000000    0.00000000
     atom    5 type  2   force =     0.00000000    0.00000000    0.00000000
     atom    6 type  2   force =     0.00000000    0.00000000    0.00000000
     atom    7 type  1   force =     0.00000000    0.00000000    0.00000000
     atom    8 type  1   force =     0.00000000    0.00000000    0.00000000
     atom    9 type  2   force =     0.00000000    0.00000000    0.00000000
     atom   10 type  2   force =     0.00000000    0.00000000    0.00000000
     atom   11 type  1   force =     0.00000000    0.00000000    0.00000000
     atom   12 type  1   force =     0.00000000    0.00000000    0.00000000
     atom   13 type  1   force =     0.00000000    0.00000000    0.00000000
     atom   14 type  1   force =     0.00000000    0.00000000    0.00000000
     atom   15 type  1   force =     0.00000000    0.00000000    0.00000000
     atom   16 type  1   force =     0.00000000    0.00000000    0.00000000
     atom   17 type  2   force =     0.00000000    0.00000000    0.00000000
     atom   18 type  2   force =     0.00000000    0.00000000    0.00000000
     atom   19 type  1   force =     0.00000000    0.00000000    0.00000000
     atom   20 type  1   force =     0.00000000    0.00000000    0.00000000
     atom   21 type  2   force =     0.00000000    0.00000000    0.00000000
     atom   22 type  2   force =     0.00000000    0.00000000    0.00000000
     atom   23 type  1   force =     0.00000000    0.00000000    0.00000000
     atom   24 type  1   force =     0.00000000    0.00000000    0.00000000
     atom   25 type  1   force =     0.00000000    0.00000000    0.00000000
     atom   26 type  1   force =     0.00000000    0.00000000    0.00000000
     atom   27 type  1   force =     0.00000000    0.00000000    0.00000000
     atom   28 type  1   force =     0.00000000    0.00000000    0.00000000
     atom   29 type  2   force =     0.00000000    0.00000000    0.00000000
     atom   30 type  2   force =     0.00000000    0.00000000    0.00000000
     atom   31 type  1   force =     0.00000000    0.00000000    0.00000000
     atom   32 type  1   force =     0.00000000    0.00000000    0.00000000
     atom   33 type  2   force =     0.00000000    0.00000000    0.00000000
     atom   34 type  2   force =     0.00000000    0.00000000    0.00000000
     atom   35 type  1   force =     0.00000000    0.00000000    0.00000000
     atom   36 type  1   force =     0.00000000    0.00000000    0.00000000
     atom   37 type  1   force =     0.00000000    0.00000000    0.00000000
     atom   38 type  1   force =     0.00000000    0.00000000    0.00000000
     atom   39 type  1   force =     0.00000000    0.00000000    0.00000000
     atom   40 type  1   force =     0.00000000    0.00000000    0.00000000
     atom   41 type  3   force =     0.00000000    0.00000000    0.00000000
     atom   42 type  3   force =     0.00000000    0.00000000    0.00000000
     atom   43 type  3   force =     0.00000000    0.00000000    0.00000000
     atom   44 type  3   force =     0.00000000    0.00000000    0.00000000
     The SCF correction term to forces
     atom    1 type  1   force =    -0.00000000    0.00000024   -0.00001493
     atom    2 type  1   force =     0.00000000    0.00000027   -0.00001387
     atom    3 type  1   force =    -0.00000000   -0.00000003   -0.00001460
     atom    4 type  1   force =     0.00000000    0.00000002   -0.00001574
     atom    5 type  2   force =    -0.00000224   -0.00000008   -0.00003364
     atom    6 type  2   force =     0.00000224   -0.00000008   -0.00003364
     atom    7 type  1   force =     0.00000239    0.00000828   -0.00001692
     atom    8 type  1   force =    -0.00000239    0.00000828   -0.00001692
     atom    9 type  2   force =    -0.00000000    0.00000002   -0.00004765
     atom   10 type  2   force =     0.00000000    0.00000004   -0.00006105
     atom   11 type  1   force =     0.00000246   -0.00000836   -0.00001703
     atom   12 type  1   force =    -0.00000246   -0.00000836   -0.00001703
     atom   13 type  1   force =    -0.00000000    0.00000005   -0.00000269
     atom   14 type  1   force =     0.00000000   -0.00000014   -0.00001661
     atom   15 type  1   force =    -0.00000000   -0.00000005   -0.00000691
     atom   16 type  1   force =     0.00000000   -0.00000007   -0.00001302
     atom   17 type  2   force =    -0.00000000    0.00000014    0.00001023
     atom   18 type  2   force =     0.00000000    0.00000015    0.00001023
     atom   19 type  1   force =    -0.00001293    0.00000257    0.00000370
     atom   20 type  1   force =     0.00001293    0.00000257    0.00000370
     atom   21 type  2   force =    -0.00000985   -0.00000007    0.00000984
     atom   22 type  2   force =     0.00000985   -0.00000007    0.00000984
     atom   23 type  1   force =    -0.00001294   -0.00000258    0.00000372
     atom   24 type  1   force =     0.00001294   -0.00000258    0.00000372
     atom   25 type  1   force =     0.00000000   -0.00000004    0.00001208
     atom   26 type  1   force =    -0.00000000   -0.00000005    0.00001818
     atom   27 type  1   force =     0.00000000    0.00000004    0.00000557
     atom   28 type  1   force =    -0.00000000   -0.00000015    0.00001949
     atom   29 type  2   force =    -0.00000224   -0.00000010    0.00003109
     atom   30 type  2   force =     0.00000224   -0.00000010    0.00003109
     atom   31 type  1   force =     0.00000239    0.00000789    0.00001615
     atom   32 type  1   force =    -0.00000239    0.00000789    0.00001615
     atom   33 type  2   force =     0.00000000    0.00000005    0.00004443
     atom   34 type  2   force =    -0.00000000    0.00000007    0.00005783
     atom   35 type  1   force =     0.00000247   -0.00000797    0.00001619
     atom   36 type  1   force =    -0.00000247   -0.00000797    0.00001619
     atom   37 type  1   force =     0.00000000   -0.00000004    0.00001231
     atom   38 type  1   force =    -0.00000000    0.00000001    0.00001345
     atom   39 type  1   force =     0.00000000    0.00000024    0.00001317
     atom   40 type  1   force =    -0.00000000    0.00000027    0.00001210
     atom   41 type  3   force =    -0.00000000    0.00000001   -0.00000256
     atom   42 type  3   force =     0.00000000    0.00000001    0.00000227
     atom   43 type  3   force =     0.00000000    0.00000002   -0.00000264
     atom   44 type  3   force =    -0.00000000    0.00000003    0.00000235

     Total force =     0.003637     Total SCF correction =     0.000150

     BFGS Geometry Optimization
     Energy error            =      0.0E+00 Ry
     Gradient error          =      1.1E-03 Ry/Bohr

     number of scf cycles    =   1
     number of bfgs steps    =   0

     energy             new  =   -3432.5768297563 Ry

     new trust radius        =       0.0010783538 bohr
     new conv_thr            =       0.0000000010 Ry


ATOMIC_POSITIONS (crystal)
O             0.0000000000        0.5061367309        0.2738040377
O             0.5000000000        0.5061388644        0.2738041339
O             0.0000000000        0.0093347516        0.3045541610
O             0.5000000000        0.0093453849        0.3045536788
Ru            0.2499999750        0.0086408722        0.3588651114
Ru            0.7500000250        0.0086408722        0.3588651114
O             0.2499975656        0.3205708135        0.3597354995
O             0.7500024344        0.3205708135        0.3597354995
Ru            0.0000000000        0.5085370887        0.3521415288
Ru            0.5000000000        0.5085363868        0.3521415246
O             0.2500024634        0.6970485554        0.3584033128
O             0.7499975366        0.6970485554        0.3584033128
O             0.0000000000        0.0092067778        0.4116707077
O             0.5000000000        0.0092109275        0.4116708264
O             0.0000000000        0.5141114866        0.4447711947
O             0.5000000000        0.5141117022        0.4447712050
Ru            0.0000000000        0.0148113855        0.5000010000
Ru            0.5000000000        0.0148101288        0.5000010000
O             0.2500007329        0.2008025493        0.5000010000
O             0.7499992671        0.2008025493        0.5000010000
Ru            0.2500000426        0.5150287739        0.5000010000
Ru            0.7499999574        0.5150287739        0.5000010000
O             0.2499987397        0.8290366143        0.5000010000
O             0.7500012603        0.8290366143        0.5000010000
O             0.0000000000        0.5141114866        0.5552298053
O             0.5000000000        0.5141117022        0.5552297950
O             0.0000000000        0.0092067778        0.5883302923
O             0.5000000000        0.0092109275        0.5883301736
Ru            0.2499999750        0.0086408722        0.6411358886
Ru            0.7500000250        0.0086408722        0.6411358886
O             0.2499975656        0.3205708135        0.6402655005
O             0.7500024344        0.3205708135        0.6402655005
Ru            0.0000000000        0.5085370887        0.6478594712
Ru            0.5000000000        0.5085363868        0.6478594754
O             0.2500024634        0.6970485554        0.6415976872
O             0.7499975366        0.6970485554        0.6415976872
O             0.0000000000        0.0093347516        0.6954478390
O             0.5000000000        0.0093453849        0.6954483212
O             0.0000000000        0.5061367309        0.7261969623
O             0.5000000000        0.5061388644        0.7261968661
H             0.0000000000        0.0107820072        0.2605241440
H             0.0000000000        0.0107820072        0.7394758560
H             0.5000000000        0.0107817144        0.2605246722
H             0.5000000000        0.0107817144        0.7394753278



     Writing config-only to output data dir /storage/home/mgm6007/ixd4/Maria/Strain1_Files/RuO2-110-0-23/RuO2-110-0-23.save/
     NEW-OLD atomic charge density approx. for the potential

     Check: negative core charge=   -0.000001

     negative rho (up, down):  1.489E-04 0.000E+00

     add environment contribution to local potential
     Polarization accuracy = 6.6E-12, # of iterations =  40

     total cpu time spent up to now is    16408.5 secs

     per-process dynamical memory:   202.4 Mb

     Self-consistent Calculation

     iteration #  1     ecut=    50.00 Ry     beta= 0.70
     Davidson diagonalization with overlap
     ethr =  1.00E-06,  avg # of iterations =  2.0

     Threshold (ethr) on eigenvalues was too large:
     Diagonalizing with lowered threshold

     Davidson diagonalization with overlap
     ethr =  2.42E-09,  avg # of iterations =  3.0

     negative rho (up, down):  1.432E-04 0.000E+00

     add environment contribution to local potential
     Polarization accuracy = 7.2E-12, # of iterations =  40

     total cpu time spent up to now is    16537.2 secs

     total energy              =   -3432.57683371 Ry
     estimated scf accuracy    <       0.00000897 Ry
     electrostatic embedding   =      -0.08355980 Ry
     cavitation energy         =       0.02103008 Ry
     PV energy                 =      -0.07945717 Ry
     correction to one-el term =     184.72599826 Ry

     iteration #  2     ecut=    50.00 Ry     beta= 0.70
     Davidson diagonalization with overlap
     ethr =  2.46E-09,  avg # of iterations =  2.0

     negative rho (up, down):  1.393E-04 0.000E+00

     add environment contribution to local potential
     Polarization accuracy = 4.5E-12, # of iterations =  40

     total cpu time spent up to now is    16670.2 secs

     total energy              =   -3432.57683524 Ry
     estimated scf accuracy    <       0.00000198 Ry
     electrostatic embedding   =      -0.08359592 Ry
     cavitation energy         =       0.02102888 Ry
     PV energy                 =      -0.07945660 Ry
     correction to one-el term =     184.72208188 Ry

     iteration #  3     ecut=    50.00 Ry     beta= 0.70
     Davidson diagonalization with overlap
     ethr =  5.44E-10,  avg # of iterations =  1.0

     negative rho (up, down):  1.361E-04 0.000E+00

     add environment contribution to local potential
     Polarization accuracy = 2.3E-12, # of iterations =  40

     total cpu time spent up to now is    16813.8 secs

     total energy              =   -3432.57683542 Ry
     estimated scf accuracy    <       0.00000399 Ry
     electrostatic embedding   =      -0.08362597 Ry
     cavitation energy         =       0.02102845 Ry
     PV energy                 =      -0.07945657 Ry
     correction to one-el term =     184.71798400 Ry

     iteration #  4     ecut=    50.00 Ry     beta= 0.70
     Davidson diagonalization with overlap
     ethr =  5.44E-10,  avg # of iterations =  1.0

     negative rho (up, down):  1.326E-04 0.000E+00

     add environment contribution to local potential
     Polarization accuracy = 4.9E-12, # of iterations =  40

     total cpu time spent up to now is    16949.7 secs

     total energy              =   -3432.57683542 Ry
     estimated scf accuracy    <       0.00000046 Ry
     electrostatic embedding   =      -0.08364757 Ry
     cavitation energy         =       0.02102808 Ry
     PV energy                 =      -0.07945670 Ry
     correction to one-el term =     184.71382909 Ry

     iteration #  5     ecut=    50.00 Ry     beta= 0.70
     Davidson diagonalization with overlap
     ethr =  1.28E-10,  avg # of iterations =  2.0

     negative rho (up, down):  1.307E-04 0.000E+00

     add environment contribution to local potential
     Polarization accuracy = 5.9E-12, # of iterations =  40

     total cpu time spent up to now is    17100.0 secs

     total energy              =   -3432.57683534 Ry
     estimated scf accuracy    <       0.00000051 Ry
     electrostatic embedding   =      -0.08368626 Ry
     cavitation energy         =       0.02102775 Ry
     PV energy                 =      -0.07945647 Ry
     correction to one-el term =     184.70843407 Ry

     iteration #  6     ecut=    50.00 Ry     beta= 0.70
     Davidson diagonalization with overlap
     ethr =  1.28E-10,  avg # of iterations =  1.0

     negative rho (up, down):  1.304E-04 0.000E+00

     add environment contribution to local potential
     Polarization accuracy = 1.2E-12, # of iterations =  40

     total cpu time spent up to now is    17234.5 secs

     total energy              =   -3432.57683527 Ry
     estimated scf accuracy    <       0.00000012 Ry
     electrostatic embedding   =      -0.08371151 Ry
     cavitation energy         =       0.02102762 Ry
     PV energy                 =      -0.07945629 Ry
     correction to one-el term =     184.70446670 Ry

     iteration #  7     ecut=    50.00 Ry     beta= 0.70
     Davidson diagonalization with overlap
     ethr =  3.25E-11,  avg # of iterations =  2.0

     negative rho (up, down):  1.313E-04 0.000E+00

     add environment contribution to local potential
     Polarization accuracy = 2.7E-12, # of iterations =  40

     total cpu time spent up to now is    17389.9 secs

     total energy              =   -3432.57683518 Ry
     estimated scf accuracy    <       0.00000007 Ry
     electrostatic embedding   =      -0.08373114 Ry
     cavitation energy         =       0.02102764 Ry
     PV energy                 =      -0.07945603 Ry
     correction to one-el term =     184.70160714 Ry

     iteration #  8     ecut=    50.00 Ry     beta= 0.70
     Davidson diagonalization with overlap
     ethr =  1.80E-11,  avg # of iterations =  2.0

     negative rho (up, down):  1.336E-04 0.000E+00

     add environment contribution to local potential
     Polarization accuracy = 5.5E-12, # of iterations =  40

     total cpu time spent up to now is    17515.1 secs

     total energy              =   -3432.57683505 Ry
     estimated scf accuracy    <       0.00000002 Ry
     electrostatic embedding   =      -0.08375891 Ry
     cavitation energy         =       0.02102774 Ry
     PV energy                 =      -0.07945553 Ry
     correction to one-el term =     184.69801862 Ry

     iteration #  9     ecut=    50.00 Ry     beta= 0.70
     Davidson diagonalization with overlap
     ethr =  5.89E-12,  avg # of iterations =  2.0

     negative rho (up, down):  1.355E-04 0.000E+00

     add environment contribution to local potential
     Polarization accuracy = 7.8E-12, # of iterations =  40

     total cpu time spent up to now is    17648.1 secs

     total energy              =   -3432.57683495 Ry
     estimated scf accuracy    <          5.6E-09 Ry
     electrostatic embedding   =      -0.08378350 Ry
     cavitation energy         =       0.02102784 Ry
     PV energy                 =      -0.07945502 Ry
     correction to one-el term =     184.69513833 Ry

     iteration # 10     ecut=    50.00 Ry     beta= 0.70
     Davidson diagonalization with overlap
     ethr =  1.54E-12,  avg # of iterations =  2.0

     negative rho (up, down):  1.385E-04 0.000E+00

     add environment contribution to local potential
     Polarization accuracy = 4.9E-12, # of iterations =  41

     total cpu time spent up to now is    17772.5 secs

     total energy              =   -3432.57683494 Ry
     estimated scf accuracy    <          3.2E-09 Ry
     electrostatic embedding   =      -0.08379007 Ry
     cavitation energy         =       0.02102785 Ry
     PV energy                 =      -0.07945485 Ry
     correction to one-el term =     184.69461034 Ry

     iteration # 11     ecut=    50.00 Ry     beta= 0.70
     Davidson diagonalization with overlap
     ethr =  8.84E-13,  avg # of iterations =  2.0

     negative rho (up, down):  1.445E-04 0.000E+00

     add environment contribution to local potential
     Polarization accuracy = 3.6E-12, # of iterations =  40

     total cpu time spent up to now is    17900.9 secs

     total energy              =   -3432.57683493 Ry
     estimated scf accuracy    <          1.8E-09 Ry
     electrostatic embedding   =      -0.08379547 Ry
     cavitation energy         =       0.02102785 Ry
     PV energy                 =      -0.07945467 Ry
     correction to one-el term =     184.69444195 Ry

     iteration # 12     ecut=    50.00 Ry     beta= 0.70
     Davidson diagonalization with overlap
     ethr =  5.03E-13,  avg # of iterations =  2.0

     negative rho (up, down):  1.458E-04 0.000E+00

     add environment contribution to local potential
     Polarization accuracy = 1.1E-12, # of iterations =  40

     total cpu time spent up to now is    18044.2 secs

     total energy              =   -3432.57683496 Ry
     estimated scf accuracy    <          1.1E-09 Ry
     electrostatic embedding   =      -0.08379586 Ry
     cavitation energy         =       0.02102780 Ry
     PV energy                 =      -0.07945451 Ry
     correction to one-el term =     184.69544585 Ry

     iteration # 13     ecut=    50.00 Ry     beta= 0.70
     Davidson diagonalization with overlap
     ethr =  2.96E-13,  avg # of iterations =  1.0

     negative rho (up, down):  1.489E-04 0.000E+00

     the potential shift due to the Gaussian-smeared nuclei is    -1.3393 ev

     total cpu time spent up to now is    18185.2 secs

     End of self-consistent calculation

          k = 0.2500 0.2763 0.0000 ( 34692 PWs)   bands (ev):

   -77.7674 -77.7636 -77.7538 -77.7500 -77.0542 -77.0506 -77.0412 -77.0376
   -76.8788 -76.8743 -76.8703 -76.8673 -48.2471 -48.2423 -48.2335 -48.2288
   -47.7886 -47.7750 -47.7034 -47.6898 -47.4929 -47.4798 -47.4765 -47.4634
   -47.3482 -47.3450 -47.3346 -47.3314 -47.2417 -47.2387 -47.0279 -47.0265
   -46.9896 -46.9859 -46.9718 -46.9146 -46.9039 -46.8981 -46.8188 -46.8072
   -46.8055 -46.7941 -46.7815 -46.7391 -46.7215 -46.7026 -46.6822 -46.6704
   -23.7389 -23.6577 -23.4146 -23.2966 -23.2725 -23.2628 -23.2445 -23.0784
   -23.0488 -22.9345 -22.4444 -22.3982 -22.3945 -22.3831 -22.3032 -22.2523
   -22.2143 -22.1227 -22.0757 -22.0222 -21.9781 -21.9434 -21.8701 -21.7592
   -21.4411 -21.2991 -21.2554 -21.1678 -12.1518 -11.9010 -11.8322 -11.8032
   -11.6552 -11.4917 -11.4164 -11.1778 -11.1485 -11.0285 -10.9050 -10.8577
   -10.8443 -10.8324 -10.7321 -10.6138 -10.5987 -10.4808 -10.2759 -10.2624
   -10.2607 -10.2027 -10.1183  -9.9594  -9.8878  -9.7585  -9.6881  -9.6865
    -9.5638  -9.1830  -9.1654  -9.1132  -9.0201  -8.9593  -8.9484  -8.8973
    -8.8877  -8.7563  -8.6682  -8.6277  -8.6194  -8.5477  -8.5395  -8.3724
    -8.3272  -8.0763  -7.9186  -7.8500  -7.8441  -7.8263  -7.8090  -7.7412
    -7.7376  -7.6489  -7.6350  -7.6202  -7.5852  -7.4854  -7.4755  -7.4629
    -7.3936  -7.3353  -7.1696  -7.1594  -7.0663  -6.9801  -6.8463  -6.7203
    -6.6985  -6.5788  -6.4924  -6.4803  -6.4213  -6.2721  -6.2450  -6.1781
    -6.1733  -6.0454  -6.0163  -5.9641  -5.8728  -5.8116  -5.7755  -5.5678
    -4.7748  -4.7559  -4.4374  -4.4158  -4.3891  -4.3834  -4.3332  -4.2912
    -4.2773  -4.2159  -4.1769  -4.1683  -4.0687  -4.0301  -4.0197  -3.9303
    -3.8505  -3.8101  -3.7822  -3.7353  -3.6834  -3.6606  -3.3361  -3.2688
    -3.2551  -3.1722  -3.1499  -3.0666  -2.7973  -2.7211  -2.7037  -2.6613
    -2.5725  -2.5582  -2.2968  -2.2257  -1.6535  -1.5402  -1.5257  -1.2590
    -1.2473  -1.1025  -0.5570  -0.1835  -0.0018   0.1299   0.1398   0.1644
     0.2788   0.4720   0.4891   0.6868   0.8107   0.8883   1.0264   1.2531
     1.2759   1.3423

     the Fermi energy is    -3.5240 ev

!    total energy              =   -3432.57683496 Ry
     estimated scf accuracy    <          5.3E-10 Ry
     smearing contrib. (-TS)   =       0.05753225 Ry
     internal energy E=F+TS    =   -3432.63436721 Ry

     The total energy is F=E-TS. E is the sum of the following terms:
     one-electron contribution =  -25803.80402566 Ry
     hartree contribution      =   12889.88510613 Ry
     xc contribution           =    -446.61392795 Ry
     ewald contribution        =   10009.88037416 Ry
     one-center paw contrib.   =    -266.53522220 Ry
     electrostatic embedding   =      -0.08379633 Ry
     cavitation energy         =       0.02102779 Ry
     PV energy                 =      -0.07945448 Ry
     correction to one-el term =     184.69555133 Ry

     WARNING: you are using the parabolic pbc correction;
              the potential shift above must be added to 
              band and Fermi energies.

     convergence has been achieved in  13 iterations

     negative rho (up, down):  1.489E-04 0.000E+00

     Forces acting on atoms (cartesian axes, Ry/au):

     atom    1 type  1   force =     0.00000000    0.00000404   -0.00028564
     atom    2 type  1   force =     0.00000000   -0.00000023   -0.00028677
     atom    3 type  1   force =     0.00000000    0.00000164   -0.00130122
     atom    4 type  1   force =     0.00000000   -0.00000653   -0.00125472
     atom    5 type  2   force =     0.00000054    0.00023452    0.00006436
     atom    6 type  2   force =    -0.00000054    0.00023452    0.00006436
     atom    7 type  1   force =     0.00000535    0.00032190   -0.00000215
     atom    8 type  1   force =    -0.00000535    0.00032190   -0.00000215
     atom    9 type  2   force =     0.00000000    0.00024766   -0.00005680
     atom   10 type  2   force =     0.00000000    0.00024756   -0.00005506
     atom   11 type  1   force =    -0.00000500    0.00016696    0.00030917
     atom   12 type  1   force =     0.00000500    0.00016696    0.00030917
[...]
     atom   40 type  1   force =     0.00000000   -0.00649505  102.03114229
     atom   41 type  3   force =    -0.00000000    0.03055135  -18.57095947
     atom   42 type  3   force =    -0.00000000    0.03055668   18.57132879
     atom   43 type  3   force =    -0.00000000    0.03070882  -18.57106781
     atom   44 type  3   force =    -0.00000000    0.03071417   18.57143714
     The local contribution  to forces
     atom    1 type  1   force =    -0.00000000    0.00686975  100.71567564
     atom    2 type  1   force =     0.00000000    0.00698532  100.71566975
     atom    3 type  1   force =    -0.00000000    0.02045944   92.59453405
     atom    4 type  1   force =     0.00000000    0.02045939   92.59448561
     atom    5 type  2   force =    -0.00007566    0.00502480  172.42241430
     atom    6 type  2   force =     0.00007566    0.00502480  172.42241430
     atom    7 type  1   force =    -0.00000194    0.02487218   63.06769121
     atom    8 type  1   force =     0.00000194    0.02487218   63.06769121
     atom    9 type  2   force =     0.00000000   -0.02279791  174.94990315
     atom   10 type  2   force =     0.00000000   -0.02284000  174.94981642
     atom   11 type  1   force =    -0.00000811   -0.02831892   63.13742554
     atom   12 type  1   force =     0.00000811   -0.02831892   63.13742554
     atom   13 type  1   force =    -0.00000000    0.00533213   38.78009628
     atom   14 type  1   force =     0.00000000    0.00534948   38.78012406
     atom   15 type  1   force =     0.00000000   -0.00161489   26.90157539
     atom   16 type  1   force =    -0.00000000   -0.00161293   26.90155048
     atom   17 type  2   force =    -0.00000000   -0.00933111   -0.00585798
     atom   18 type  2   force =     0.00000000   -0.00961548   -0.00585798
     atom   19 type  1   force =     0.00001283   -0.91499254   -0.00247048
     atom   20 type  1   force =    -0.00001283   -0.91499254   -0.00247048
     atom   21 type  2   force =     0.00000076    0.00383639   -0.00607760
     atom   22 type  2   force =    -0.00000076    0.00383639   -0.00607760
     atom   23 type  1   force =     0.00000057    0.91453824   -0.00247050
     atom   24 type  1   force =    -0.00000057    0.91453824   -0.00247050
     atom   25 type  1   force =    -0.00000000   -0.00161494  -26.90337739
     atom   26 type  1   force =    -0.00000000   -0.00161297  -26.90335248
     atom   27 type  1   force =    -0.00000000    0.00533209  -38.78187157
     atom   28 type  1   force =     0.00000000    0.00534944  -38.78189935
     atom   29 type  2   force =    -0.00007566    0.00502483 -172.42851438
     atom   30 type  2   force =     0.00007566    0.00502483 -172.42851438
     atom   31 type  1   force =    -0.00000194    0.02490730  -63.07015992
     atom   32 type  1   force =     0.00000194    0.02490730  -63.07015992
     atom   33 type  2   force =    -0.00000000   -0.02279856 -174.95569530
     atom   34 type  2   force =    -0.00000000   -0.02284064 -174.95560857
     atom   35 type  1   force =    -0.00000811   -0.02835411  -63.13989462
     atom   36 type  1   force =     0.00000811   -0.02835411  -63.13989462
     atom   37 type  1   force =    -0.00000000    0.02046186  -92.59825033
     atom   38 type  1   force =     0.00000000    0.02046181  -92.59820188
     atom   39 type  1   force =    -0.00000000    0.00686879 -100.71706295
     atom   40 type  1   force =     0.00000000    0.00698436 -100.71705706
     atom   41 type  3   force =    -0.00000000   -0.02963316   18.50853636
     atom   42 type  3   force =    -0.00000000   -0.02963316  -18.50853636
     atom   43 type  3   force =    -0.00000000   -0.02978672   18.50861298
     atom   44 type  3   force =    -0.00000000   -0.02978672  -18.50861298
     The core correction contribution to forces
     atom    1 type  1   force =    -0.00000000   -0.00001218   -0.01043227
     atom    2 type  1   force =    -0.00000000   -0.00001212   -0.01043227
     atom    3 type  1   force =    -0.00000000   -0.00023124    0.00968411
     atom    4 type  1   force =     0.00000000   -0.00023313    0.00968380
     atom    5 type  2   force =     0.00000000    0.00000000    0.00000000
     atom    6 type  2   force =     0.00000000    0.00000000    0.00000000
     atom    7 type  1   force =    -0.00000009   -0.00039381    0.00126017
     atom    8 type  1   force =     0.00000009   -0.00039381    0.00126017
     atom    9 type  2   force =     0.00000000    0.00000000    0.00000000
     atom   10 type  2   force =     0.00000000    0.00000000    0.00000000
     atom   11 type  1   force =     0.00000009    0.00040230    0.00122701
     atom   12 type  1   force =    -0.00000009    0.00040230    0.00122701
     atom   13 type  1   force =    -0.00000000   -0.00001374    0.00013074
     atom   14 type  1   force =     0.00000000   -0.00001374    0.00013075
     atom   15 type  1   force =     0.00000000    0.00000716   -0.00216747
     atom   16 type  1   force =     0.00000000    0.00000698   -0.00216744
     atom   17 type  2   force =     0.00000000    0.00000000    0.00000000
     atom   18 type  2   force =     0.00000000    0.00000000    0.00000000
     atom   19 type  1   force =     0.00000002   -0.00048816   -0.00000206
     atom   20 type  1   force =    -0.00000002   -0.00048816   -0.00000206
     atom   21 type  2   force =     0.00000000    0.00000000    0.00000000
     atom   22 type  2   force =     0.00000000    0.00000000    0.00000000
     atom   23 type  1   force =     0.00000001    0.00048773   -0.00000205
     atom   24 type  1   force =    -0.00000001    0.00048773   -0.00000205
     atom   25 type  1   force =     0.00000000    0.00000716    0.00216538
     atom   26 type  1   force =     0.00000000    0.00000698    0.00216535
     atom   27 type  1   force =     0.00000000   -0.00001375   -0.00013284
     atom   28 type  1   force =     0.00000000   -0.00001374   -0.00013285
     atom   29 type  2   force =     0.00000000    0.00000000    0.00000000
     atom   30 type  2   force =     0.00000000    0.00000000    0.00000000
     atom   31 type  1   force =    -0.00000009   -0.00039375   -0.00126186
     atom   32 type  1   force =     0.00000009   -0.00039375   -0.00126186
     atom   33 type  2   force =     0.00000000    0.00000000    0.00000000
     atom   34 type  2   force =     0.00000000    0.00000000    0.00000000
     atom   35 type  1   force =     0.00000009    0.00040225   -0.00122870
     atom   36 type  1   force =    -0.00000009    0.00040225   -0.00122870
     atom   37 type  1   force =     0.00000000   -0.00023128   -0.00969005
     atom   38 type  1   force =     0.00000000   -0.00023318   -0.00968973
     atom   39 type  1   force =    -0.00000000   -0.00001217    0.01043045
     atom   40 type  1   force =    -0.00000000   -0.00001212    0.01043045
     atom   41 type  3   force =     0.00000000    0.00000000    0.00000000
     atom   42 type  3   force =     0.00000000    0.00000000    0.00000000
     atom   43 type  3   force =     0.00000000    0.00000000    0.00000000
     atom   44 type  3   force =     0.00000000    0.00000000    0.00000000
     The Hubbard contrib.    to forces
     atom    1 type  1   force =     0.00000000    0.00000000    0.00000000
     atom    2 type  1   force =     0.00000000    0.00000000    0.00000000
     atom    3 type  1   force =     0.00000000    0.00000000    0.00000000
     atom    4 type  1   force =     0.00000000    0.00000000    0.00000000
     atom    5 type  2   force =     0.00000000    0.00000000    0.00000000
     atom    6 type  2   force =     0.00000000    0.00000000    0.00000000
     atom    7 type  1   force =     0.00000000    0.00000000    0.00000000
     atom    8 type  1   force =     0.00000000    0.00000000    0.00000000
     atom    9 type  2   force =     0.00000000    0.00000000    0.00000000
     atom   10 type  2   force =     0.00000000    0.00000000    0.00000000
     atom   11 type  1   force =     0.00000000    0.00000000    0.00000000
     atom   12 type  1   force =     0.00000000    0.00000000    0.00000000
     atom   13 type  1   force =     0.00000000    0.00000000    0.00000000
     atom   14 type  1   force =     0.00000000    0.00000000    0.00000000
     atom   15 type  1   force =     0.00000000    0.00000000    0.00000000
     atom   16 type  1   force =     0.00000000    0.00000000    0.00000000
     atom   17 type  2   force =     0.00000000    0.00000000    0.00000000
     atom   18 type  2   force =     0.00000000    0.00000000    0.00000000
     atom   19 type  1   force =     0.00000000    0.00000000    0.00000000
     atom   20 type  1   force =     0.00000000    0.00000000    0.00000000
     atom   21 type  2   force =     0.00000000    0.00000000    0.00000000
     atom   22 type  2   force =     0.00000000    0.00000000    0.00000000
     atom   23 type  1   force =     0.00000000    0.00000000    0.00000000
     atom   24 type  1   force =     0.00000000    0.00000000    0.00000000
     atom   25 type  1   force =     0.00000000    0.00000000    0.00000000
     atom   26 type  1   force =     0.00000000    0.00000000    0.00000000
     atom   27 type  1   force =     0.00000000    0.00000000    0.00000000
     atom   28 type  1   force =     0.00000000    0.00000000    0.00000000
     atom   29 type  2   force =     0.00000000    0.00000000    0.00000000
     atom   30 type  2   force =     0.00000000    0.00000000    0.00000000
     atom   31 type  1   force =     0.00000000    0.00000000    0.00000000
     atom   32 type  1   force =     0.00000000    0.00000000    0.00000000
     atom   33 type  2   force =     0.00000000    0.00000000    0.00000000
     atom   34 type  2   force =     0.00000000    0.00000000    0.00000000
     atom   35 type  1   force =     0.00000000    0.00000000    0.00000000
     atom   36 type  1   force =     0.00000000    0.00000000    0.00000000
     atom   37 type  1   force =     0.00000000    0.00000000    0.00000000
     atom   38 type  1   force =     0.00000000    0.00000000    0.00000000
     atom   39 type  1   force =     0.00000000    0.00000000    0.00000000
     atom   40 type  1   force =     0.00000000    0.00000000    0.00000000
     atom   41 type  3   force =     0.00000000    0.00000000    0.00000000
     atom   42 type  3   force =     0.00000000    0.00000000    0.00000000
     atom   43 type  3   force =     0.00000000    0.00000000    0.00000000
     atom   44 type  3   force =     0.00000000    0.00000000    0.00000000
     The SCF correction term to forces
     atom    1 type  1   force =    -0.00000000    0.00000080   -0.00000126
     atom    2 type  1   force =     0.00000000    0.00000065   -0.00000155
     atom    3 type  1   force =     0.00000000   -0.00000053   -0.00000091
     atom    4 type  1   force =     0.00000000   -0.00000048   -0.00000092
     atom    5 type  2   force =    -0.00000023   -0.00000093   -0.00000676
     atom    6 type  2   force =     0.00000023   -0.00000093   -0.00000676
     atom    7 type  1   force =    -0.00000020   -0.00000044   -0.00000207
     atom    8 type  1   force =     0.00000020   -0.00000044   -0.00000207
     atom    9 type  2   force =     0.00000000    0.00000059   -0.00000563
     atom   10 type  2   force =    -0.00000000    0.00000035   -0.00000514
     atom   11 type  1   force =    -0.00000025    0.00000087   -0.00000249
     atom   12 type  1   force =     0.00000025    0.00000087   -0.00000249
     atom   13 type  1   force =     0.00000000   -0.00000008   -0.00000287
     atom   14 type  1   force =    -0.00000000   -0.00000010   -0.00000288
     atom   15 type  1   force =     0.00000000   -0.00000006   -0.00000206
     atom   16 type  1   force =     0.00000000   -0.00000003   -0.00000191
     atom   17 type  2   force =    -0.00000000    0.00000019    0.00000000
     atom   18 type  2   force =    -0.00000000   -0.00000001    0.00000000
     atom   19 type  1   force =    -0.00000011   -0.00000082    0.00000000
     atom   20 type  1   force =     0.00000011   -0.00000082    0.00000000
     atom   21 type  2   force =    -0.00000018    0.00000050    0.00000000
     atom   22 type  2   force =     0.00000018    0.00000050    0.00000000
     atom   23 type  1   force =    -0.00000005    0.00000048   -0.00000000
     atom   24 type  1   force =     0.00000005    0.00000048   -0.00000000
     atom   25 type  1   force =     0.00000000   -0.00000006    0.00000206
     atom   26 type  1   force =    -0.00000000   -0.00000003    0.00000191
     atom   27 type  1   force =     0.00000000   -0.00000008    0.00000286
     atom   28 type  1   force =     0.00000000   -0.00000010    0.00000288
     atom   29 type  2   force =    -0.00000023   -0.00000093    0.00000675
     atom   30 type  2   force =     0.00000023   -0.00000093    0.00000675
     atom   31 type  1   force =    -0.00000020   -0.00000044    0.00000207
     atom   32 type  1   force =     0.00000020   -0.00000044    0.00000207
     atom   33 type  2   force =    -0.00000000    0.00000059    0.00000562
     atom   34 type  2   force =    -0.00000000    0.00000035    0.00000513
     atom   35 type  1   force =    -0.00000025    0.00000086    0.00000249
     atom   36 type  1   force =     0.00000025    0.00000086    0.00000249
     atom   37 type  1   force =     0.00000000   -0.00000053    0.00000091
     atom   38 type  1   force =     0.00000000   -0.00000048    0.00000092
     atom   39 type  1   force =     0.00000000    0.00000080    0.00000126
     atom   40 type  1   force =     0.00000000    0.00000065    0.00000155
     atom   41 type  3   force =     0.00000000   -0.00000004   -0.00000018
     atom   42 type  3   force =    -0.00000000   -0.00000004    0.00000018
     atom   43 type  3   force =     0.00000000   -0.00000004   -0.00000019
     atom   44 type  3   force =     0.00000000   -0.00000004    0.00000019

     Total force =     0.000232     Total SCF correction =     0.000020
     Energy error            =      4.5E-07 Ry
     Gradient error          =      5.6E-05 Ry/Bohr

     bfgs converged in  30 scf cycles and  29 bfgs steps
     (criteria: energy <  1.0E-04 Ry, force <  1.0E-04 Ry/Bohr)

     End of BFGS Geometry Optimization

     Final energy             =   -3432.5769908321 Ry

     File /storage/home/mgm6007/ixd4/Maria/Strain1_Files/RuO2-110-0-23/RuO2-110-0-23.bfgs deleted, as requested
Begin final coordinates

ATOMIC_POSITIONS (crystal)
O             0.0000000000        0.5098004547        0.2737502644
O             0.5000000000        0.5098005013        0.2737503187
O             0.0000000000        0.0102028128        0.3045129515
O             0.5000000000        0.0101935836        0.3045125421
Ru            0.2500000035        0.0102728661        0.3588363260
Ru            0.7499999965        0.0102728661        0.3588363260
O             0.2500005739        0.3220450428        0.3590995389
O             0.7499994261        0.3220450428        0.3590995389
Ru            0.0000000000        0.5102568044        0.3520971838
Ru            0.5000000000        0.5102568279        0.3520972428
O             0.2499994129        0.6984932079        0.3590067986
O             0.7500005871        0.6984932079        0.3590067986
O             0.0000000000        0.0101704802        0.4116401565
O             0.5000000000        0.0101705722        0.4116401511
O             0.0000000000        0.5103473774        0.4447721118
O             0.5000000000        0.5103460083        0.4447721652
Ru            0.0000000000        0.0103024504        0.5000010000
Ru            0.5000000000        0.0103041930        0.5000010000
O             0.2499990595        0.1961767306        0.5000010000
O             0.7500009405        0.1961767306        0.5000010000
Ru            0.2499998987        0.5103103432        0.5000010000
Ru            0.7500001013        0.5103103432        0.5000010000
O             0.2500011171        0.8244421977        0.5000010000
O             0.7499988829        0.8244421977        0.5000010000
O             0.0000000000        0.5103473774        0.5552288882
O             0.5000000000        0.5103460083        0.5552288348
O             0.0000000000        0.0101704802        0.5883608435
O             0.5000000000        0.0101705722        0.5883608489
Ru            0.2500000035        0.0102728661        0.6411646740
Ru            0.7499999965        0.0102728661        0.6411646740
O             0.2500005739        0.3220450428        0.6409014611
O             0.7499994261        0.3220450428        0.6409014611
Ru            0.0000000000        0.5102568044        0.6479038162
Ru            0.5000000000        0.5102568279        0.6479037572
O             0.2499994129        0.6984932079        0.6409942014
O             0.7500005871        0.6984932079        0.6409942014
O             0.0000000000        0.0102028128        0.6954890485
O             0.5000000000        0.0101935836        0.6954894579
O             0.0000000000        0.5098004547        0.7262507356
O             0.5000000000        0.5098005013        0.7262506813
H             0.0000000000        0.0120173022        0.2605093617
H             0.0000000000        0.0120173022        0.7394906383
H             0.5000000000        0.0120154481        0.2605096021
H             0.5000000000        0.0120154481        0.7394903979
End final coordinates



     Writing all to output data dir /storage/home/mgm6007/ixd4/Maria/Strain1_Files/RuO2-110-0-23/RuO2-110-0-23.save/
 
     init_run     :    100.15s CPU   2520.86s WALL (       1 calls)
     electrons    :  32022.63s CPU 135187.33s WALL (      30 calls)
     update_pot   :     49.01s CPU     49.10s WALL (      29 calls)
     forces       :     48.18s CPU     48.42s WALL (      30 calls)

     Called by init_run:
     wfcinit      :      0.48s CPU      0.49s WALL (       1 calls)
     potinit      :     79.32s CPU   1993.46s WALL (       1 calls)
     hinit0       :     19.89s CPU    526.29s WALL (       1 calls)

     Called by electrons:
     c_bands      :    597.94s CPU    598.65s WALL (     482 calls)
     sum_band     :    124.27s CPU    124.43s WALL (     482 calls)
     v_of_rho     :     47.84s CPU     47.99s WALL (     483 calls)
     newd         :     33.08s CPU     33.13s WALL (     483 calls)
     PAW_pot      :     60.29s CPU     60.36s WALL (     512 calls)
     mix_rho      :    311.85s CPU    312.13s WALL (     482 calls)

     Called by c_bands:
     init_us_2    :      6.79s CPU      6.85s WALL (     994 calls)
     init_us_2:cp :      6.79s CPU      6.84s WALL (     994 calls)
     cegterg      :    575.30s CPU    575.90s WALL (     482 calls)

     Called by *egterg:
     cdiaghg      :     73.94s CPU     73.97s WALL (    1573 calls)
     h_psi        :    292.57s CPU    292.99s WALL (    1632 calls)
     s_psi        :     45.25s CPU     45.28s WALL (    1632 calls)
     g_psi        :      1.51s CPU      1.51s WALL (    1149 calls)

     Called by h_psi:
     h_psi:calbec :     45.35s CPU     45.39s WALL (    1632 calls)
     vloc_psi     :    197.84s CPU    198.17s WALL (    1632 calls)
     add_vuspsi   :     45.85s CPU     45.91s WALL (    1632 calls)

     General routines
     calbec       :     71.82s CPU     71.88s WALL (    2263 calls)
     fft          :   5918.71s CPU   5919.45s WALL (    6607 calls)
     ffts         :    112.38s CPU    112.44s WALL (  176236 calls)
     fftw         :    180.94s CPU    181.10s WALL (  559408 calls)
     interpolate  :   5880.85s CPU   5881.61s WALL (     483 calls)
 
     Parallel routines
 
     Environ routines
 
     PWSCF        :      9h28m CPU   1d16h38m WALL

 
   This run was terminated on:   8:45:22  20Jul2023            

=------------------------------------------------------------------------------=
   JOB DONE.
=------------------------------------------------------------------------------=
