
     Program PWSCF v.7.2 starts on 23Jul2023 at 14:20:46 
        Git branch: heads/qe-7.2
        Last git commit: b4c5e8deeb7d1863e7553a87b45f8d22c21926a5
        Last git commit date: Mon Mar 27 16:12:09 2023 +0000
        Last git commit subject: Merge branch 'merge_fix_hubbard' into 'develop'

     This program is part of the open-source Quantum ESPRESSO suite
     for quantum simulation of materials; please cite
         "P. Giannozzi et al., J. Phys.:Condens. Matter 21 395502 (2009);
         "P. Giannozzi et al., J. Phys.:Condens. Matter 29 465901 (2017);
         "P. Giannozzi et al., J. Chem. Phys. 152 154105 (2020);
          URL http://www.quantum-espresso.org", 
     in publications or presentations arising from this work. More details at
     http://www.quantum-espresso.org/quote

     Parallel version (MPI), running on    20 processors

     MPI processes distributed on     1 nodes
     97342 MiB available memory on the printing compute node when the environment starts
 
     Reading input from RuO2-110-0-0124.in

     Current dimensions of program PWSCF are:
     Max number of different atomic species (ntypx) = 10
     Max number of k-points (npk) =  40000
     Max angular momentum in pseudopotentials (lmaxx) =  4
 
     Reading input from environ.in:
     * Environ restarting
     * setting up water environment
     * using electronic solvent mode
     * setting boundary derivatives method to SCCS default
     

     File /storage/home/mgm6007/ixd4/Maria/Strain2_Files/RuO2-110-0-0124/RuO2-110-0-0124.update deleted, as requested

     File /storage/home/mgm6007/ixd4/Maria/Strain2_Files/RuO2-110-0-0124/RuO2-110-0-0124.bfgs deleted, as requested
     file O.pbe-n-kjpaw_psl.0.1.UPF: wavefunction(s)  2P renormalized
     Message from routine setup:
     using ibrav=0 with symmetry is DISCOURAGED, use correct ibrav instead
 
     R & G space division:  proc/nbgrp/npool/nimage =      20
     Subspace diagonalization in iterative solution of the eigenvalue problem:
     one sub-group per band group will be used
     scalapack distributed-memory algorithm (size of sub-group:  2*  2 procs)

 
     Parallelization info
     --------------------
     sticks:   dense  smooth     PW     G-vecs:    dense   smooth      PW
     Min         279     111     29                55537    14039    1893
     Max         280     112     30                55546    14052    1904
     Sum        5595    2237    595              1110843   280917   37967
 
     Using Slab Decomposition
 


     bravais-lattice index     =            0
     lattice parameter (alat)  =      12.2467  a.u.
     unit-cell volume          =    5883.2137 (a.u.)^3
     number of atoms/cell      =           48
     number of atomic types    =            3
     number of electrons       =       368.00
     number of Kohn-Sham states=          221
     kinetic-energy cutoff     =      50.0000  Ry
     charge density cutoff     =     500.0000  Ry
     scf convergence threshold =      1.0E-09
     mixing beta               =       0.7000
     number of iterations used =            8  local-TF  mixing
     energy convergence thresh.=      1.0E-04
     force convergence thresh. =      1.0E-04
     Exchange-correlation= PBE
                           (   1   4   3   4   0   0   0)
     nstep                     =          200


     ================================================================================
 
                                  Environ Setup Summary

     ================================================================================
 
     Please cite

          O. Andreussi, I. Dabo and N. Marzari, J. Chem. Phys. 136, 064102 (2012)

     in publications or presentations arising from this work.

     ================================================================================
 
     Parameters
     ==========

     compensation onset threshold      =               0.1000E+00
     static permittivity               =                    78.30
     surface tension in input (dyn/cm) =                    47.90
     surface tension in internal units =               0.6153E-04
     external pressure in input (GPa)  =                    -0.36
     external pressure in inter. units =              -0.2447E-04

     Solvent Boundary
     ================

     solvent mode                      =               electronic
     derivatives method                =                    chain
     numerical core for derivatives    =                      fft
     switching function adopted        =                     SCCS
     density limit for vacuum region   =               0.5000E-02
     density limit for bulk solvent    =               0.1000E-03

     Electrostatic Setup
     ===================

     electrostatic problem to solve    =              generalized
     numerical solver adopted          =                       cg
     type of auxiliary density adopted =                     none
     numerical core for poisson        =                      fft
     type of pbc corrections           =                parabolic
     numerical core for corrections    =                      1da

     ================================================================================
 

     celldm(1)=  12.246684  celldm(2)=   0.000000  celldm(3)=   0.000000
     celldm(4)=   0.000000  celldm(5)=   0.000000  celldm(6)=   0.000000

     crystal axes: (cart. coord. in units of alat)
               a(1) = (   1.000000   0.000000   0.000000 )  
               a(2) = (   0.000000   0.937861   0.000000 )  
               a(3) = (   0.000000   0.000000   3.415235 )  

     reciprocal axes: (cart. coord. in units 2 pi/alat)
               b(1) = (  1.000000  0.000000  0.000000 )  
               b(2) = (  0.000000  1.066256  0.000000 )  
               b(3) = (  0.000000  0.000000  0.292806 )  


     PseudoPot. # 1 for O  read from file:
     /gpfs/group/ixd4/default/Simon/pseudopotentials/materialscloud/SSSP_1.3.0_PBE_efficiency/O.pbe-n-kjpaw_psl.0.1.UPF
     MD5 check sum: 0234752ac141de4415c5fc33072bef88
     Pseudo is Projector augmented-wave + core cor, Zval =  6.0
     Generated using "atomic" code by A. Dal Corso  v.5.0.99 svn rev. 10869
     Shape of augmentation charge: BESSEL
     Using radial grid of 1095 points,  4 beta functions with: 
                l(1) =   0
                l(2) =   0
                l(3) =   1
                l(4) =   1
     Q(r) pseudized with 0 coefficients 


     PseudoPot. # 2 for Ru read from file:
     /gpfs/group/ixd4/default/Simon/pseudopotentials/materialscloud/SSSP_1.3.0_PBE_efficiency/Ru_ONCV_PBE-1.0.oncvpsp.upf
     MD5 check sum: be037bb81c227cfb9b1461a9f099f4bd
     Pseudo is Norm-conserving, Zval = 16.0
     Generated using ONCVPSP code by D. R. Hamann
     Using radial grid of 1458 points,  6 beta functions with: 
                l(1) =   0
                l(2) =   0
                l(3) =   1
                l(4) =   1
                l(5) =   2
                l(6) =   2

     PseudoPot. # 3 for H  read from file:
     /gpfs/group/ixd4/default/Simon/pseudopotentials/materialscloud/SSSP_1.3.0_PBE_efficiency/H.pbe-rrkjus_psl.1.0.0.UPF
     MD5 check sum: f52b6d4d1c606e5624b1dc7b2218f220
     Pseudo is Ultrasoft, Zval =  1.0
     Generated using "atomic" code by A. Dal Corso  v.5.1
     Using radial grid of  929 points,  2 beta functions with: 
                l(1) =   0
                l(2) =   0
     Q(r) pseudized with 0 coefficients 


     atomic species   valence    mass     pseudopotential
        O              6.00    15.99940     O ( 1.00)
        Ru            16.00   101.07000     Ru( 1.00)
        H              1.00     1.00794     H ( 1.00)

      4 Sym. Ops. (no inversion) found



   Cartesian axes

     site n.     atom                  positions (alat units)
         1           O   tau(   1) = (  -0.0011888   0.4689304   0.9116046  )
         2           O   tau(   2) = (   0.4904535   0.4689304   0.9131888  )
         3           O   tau(   3) = (  -0.0033639   0.0000000   0.9891727  )
         4           O   tau(   4) = (   0.4988141   0.0000000   1.0484955  )
         5           Ru  tau(   5) = (   0.2604723   0.0000000   1.2211731  )
         6           Ru  tau(   6) = (   0.7371644   0.0000000   1.2210473  )
         7           O   tau(   7) = (   0.2479430   0.2924921   1.2189700  )
         8           O   tau(   8) = (   0.7503531   0.2926400   1.2171197  )
         9           Ru  tau(   9) = (  -0.0005671   0.4689304   1.2236903  )
        10           Ru  tau(  10) = (   0.4989467   0.4689304   1.2160303  )
        11           O   tau(  11) = (   0.2479430   0.6453687   1.2189700  )
        12           O   tau(  12) = (   0.7503531   0.6452209   1.2171197  )
        13           O   tau(  13) = (  -0.0008445   0.0000000   1.4030687  )
        14           O   tau(  14) = (   0.4989712   0.0000000   1.4064573  )
        15           O   tau(  15) = (  -0.0008066   0.4689304   1.5225829  )
        16           O   tau(  16) = (   0.4994078   0.4689304   1.5173740  )
        17           Ru  tau(  17) = (  -0.0005481   0.0000000   1.7076210  )
        18           Ru  tau(  18) = (   0.4993660   0.0000000   1.7076210  )
        19           O   tau(  19) = (   0.2488142   0.1762900   1.7076210  )
        20           O   tau(  20) = (   0.7502705   0.1762650   1.7076210  )
        21           Ru  tau(  21) = (   0.2505242   0.4689304   1.7076210  )
        22           Ru  tau(  22) = (   0.7477134   0.4689304   1.7076210  )
        23           O   tau(  23) = (   0.2488142   0.7615718   1.7076210  )
        24           O   tau(  24) = (   0.7502705   0.7615968   1.7076210  )
        25           O   tau(  25) = (  -0.0008066   0.4689304   1.8926557  )
        26           O   tau(  26) = (   0.4994078   0.4689304   1.8978646  )
        27           O   tau(  27) = (  -0.0008445   0.0000000   2.0121699  )
        28           O   tau(  28) = (   0.4989712   0.0000000   2.0087813  )
        29           Ru  tau(  29) = (   0.2604723   0.0000000   2.1940656  )
        30           Ru  tau(  30) = (   0.7371644   0.0000000   2.1941914  )
        31           O   tau(  31) = (   0.2479430   0.2924921   2.1962686  )
        32           O   tau(  32) = (   0.7503531   0.2926400   2.1981190  )
        33           Ru  tau(  33) = (  -0.0005671   0.4689304   2.1915484  )
        34           Ru  tau(  34) = (   0.4989467   0.4689304   2.1992084  )
        35           O   tau(  35) = (   0.2479430   0.6453687   2.1962686  )
        36           O   tau(  36) = (   0.7503531   0.6452209   2.1981190  )
        37           O   tau(  37) = (  -0.0033639   0.0000000   2.4260694  )
        38           O   tau(  38) = (   0.4988141   0.0000000   2.3667465  )
        39           O   tau(  39) = (  -0.0011888   0.4689304   2.5036341  )
        40           O   tau(  40) = (   0.4904535   0.4689304   2.5020498  )
        41           H   tau(  41) = (   0.1427467   0.4689304   0.8654084  )
        42           H   tau(  42) = (   0.1427467   0.4689304   2.5498269  )
        43           H   tau(  43) = (   0.6321415   0.4689304   0.8612982  )
        44           H   tau(  44) = (   0.6321415   0.4689304   2.5539370  )
        45           H   tau(  45) = (  -0.0056410   0.1244484   0.9002188  )
        46           H   tau(  46) = (  -0.0056410   0.1244484   2.5150164  )
        47           H   tau(  47) = (  -0.0056410   0.8134125   0.9002188  )
        48           H   tau(  48) = (  -0.0056410   0.8134125   2.5150164  )

     number of k points=     1  Marzari-Vanderbilt smearing, width (Ry)=  0.0300
                       cart. coord. in units 2pi/alat
        k(    1) = (   0.2500000   0.2665641   0.0000000), wk =   2.0000000

     Dense  grid:  1110843 G-vectors     FFT dimensions: (  90,  81, 300)

     Smooth grid:   280917 G-vectors     FFT dimensions: (  60,  54, 192)

     Estimated max dynamical RAM per process >     170.37 MB

     Estimated total dynamical RAM >       3.33 GB

     Check: negative core charge=   -0.000001

     Initial potential from superposition of free atoms

     starting charge     367.9933, renormalised to     368.0000

     add environment contribution to local potential
     Polarization accuracy = 7.4E-12, # of iterations =  23

     negative rho (up, down):  2.634E-05 0.000E+00
     Starting wfcs are  240 randomized atomic wfcs
     Checking if some PAW data can be deallocated... 

     total cpu time spent up to now is      644.6 secs

     per-process dynamical memory:   139.3 Mb

     Self-consistent Calculation

     iteration #  1     ecut=    50.00 Ry     beta= 0.70
     Davidson diagonalization with overlap
     ethr =  1.00E-02,  avg # of iterations =  2.0

     total cpu time spent up to now is      827.1 secs

     total energy              =   -3435.55302365 Ry
     estimated scf accuracy    <       9.10148251 Ry
     electrostatic embedding   =      -0.00181222 Ry
     cavitation energy         =       0.01950750 Ry
     PV energy                 =      -0.08677474 Ry
     correction to one-el term =     221.47217468 Ry

     iteration #  2     ecut=    50.00 Ry     beta= 0.70
     Davidson diagonalization with overlap
     ethr =  2.47E-03,  avg # of iterations =  2.0

     total cpu time spent up to now is      989.8 secs

     total energy              =   -3437.54954151 Ry
     estimated scf accuracy    <       1.68926253 Ry
     electrostatic embedding   =      -0.00288729 Ry
     cavitation energy         =       0.01942543 Ry
     PV energy                 =      -0.08767341 Ry
     correction to one-el term =     221.47548114 Ry

     iteration #  3     ecut=    50.00 Ry     beta= 0.70
     Davidson diagonalization with overlap
     ethr =  4.59E-04,  avg # of iterations =  4.0

     total cpu time spent up to now is     1151.1 secs

     total energy              =   -3437.70183717 Ry
     estimated scf accuracy    <       0.37771485 Ry
     electrostatic embedding   =      -0.00328593 Ry
     cavitation energy         =       0.01946312 Ry
     PV energy                 =      -0.08769803 Ry
     correction to one-el term =     221.47648232 Ry

     iteration #  4     ecut=    50.00 Ry     beta= 0.70
     Davidson diagonalization with overlap
     ethr =  1.03E-04,  avg # of iterations =  2.0

     total cpu time spent up to now is     1311.9 secs

     total energy              =   -3437.69041573 Ry
     estimated scf accuracy    <       0.20963099 Ry
     electrostatic embedding   =      -0.00350317 Ry
     cavitation energy         =       0.01965126 Ry
     PV energy                 =      -0.08722943 Ry
     correction to one-el term =     221.47674813 Ry

     iteration #  5     ecut=    50.00 Ry     beta= 0.70
     Davidson diagonalization with overlap
     ethr =  5.70E-05,  avg # of iterations =  3.0

     total cpu time spent up to now is     1463.4 secs

     total energy              =   -3437.68857385 Ry
     estimated scf accuracy    <       0.19366735 Ry
     electrostatic embedding   =      -0.00370679 Ry
     cavitation energy         =       0.02019435 Ry
     PV energy                 =      -0.08608895 Ry
     correction to one-el term =     221.47671925 Ry

     iteration #  6     ecut=    50.00 Ry     beta= 0.70
     Davidson diagonalization with overlap
     ethr =  5.26E-05,  avg # of iterations =  2.0

     add environment contribution to local potential
     Polarization accuracy = 5.9E-12, # of iterations =  34

     total cpu time spent up to now is     1621.7 secs

     total energy              =   -3437.68381832 Ry
     estimated scf accuracy    <       0.09691286 Ry
     electrostatic embedding   =      -0.00370906 Ry
     cavitation energy         =       0.02050577 Ry
     PV energy                 =      -0.08535166 Ry
     correction to one-el term =     221.47642595 Ry

     iteration #  7     ecut=    50.00 Ry     beta= 0.70
     Davidson diagonalization with overlap
     ethr =  2.63E-05,  avg # of iterations =  9.0

     total cpu time spent up to now is     1802.0 secs

     total energy              =   -3437.71588957 Ry
     estimated scf accuracy    <       0.10988650 Ry
     electrostatic embedding   =      -0.05025498 Ry
     cavitation energy         =       0.02086019 Ry
     PV energy                 =      -0.08434847 Ry
     correction to one-el term =     183.31912917 Ry

     iteration #  8     ecut=    50.00 Ry     beta= 0.70
     Davidson diagonalization with overlap
     ethr =  2.63E-05,  avg # of iterations =  1.0

     add environment contribution to local potential
     Polarization accuracy = 3.5E-12, # of iterations =  44

     total cpu time spent up to now is     1954.3 secs

     total energy              =   -3437.70740950 Ry
     estimated scf accuracy    <       0.04534264 Ry
     electrostatic embedding   =      -0.05164730 Ry
     cavitation energy         =       0.02117399 Ry
     PV energy                 =      -0.08354362 Ry
     correction to one-el term =     183.32455531 Ry

     iteration #  9     ecut=    50.00 Ry     beta= 0.70
     Davidson diagonalization with overlap
     ethr =  1.23E-05,  avg # of iterations =  6.0

     negative rho (up, down):  7.601E-06 0.000E+00

     add environment contribution to local potential
     Polarization accuracy = 3.9E-12, # of iterations =  48

     total cpu time spent up to now is     2103.6 secs

     total energy              =   -3437.71569379 Ry
     estimated scf accuracy    <       0.02759795 Ry
     electrostatic embedding   =      -0.06969018 Ry
     cavitation energy         =       0.02157497 Ry
     PV energy                 =      -0.08260372 Ry
     correction to one-el term =     177.27925673 Ry

     iteration # 10     ecut=    50.00 Ry     beta= 0.70
     Davidson diagonalization with overlap
     ethr =  7.50E-06,  avg # of iterations =  3.0

     negative rho (up, down):  2.318E-06 0.000E+00

     add environment contribution to local potential
     Polarization accuracy = 7.3E-12, # of iterations =  45

     total cpu time spent up to now is     2287.2 secs

     total energy              =   -3437.71841565 Ry
     estimated scf accuracy    <       0.01848737 Ry
     electrostatic embedding   =      -0.08087095 Ry
     cavitation energy         =       0.02167971 Ry
     PV energy                 =      -0.08219475 Ry
     correction to one-el term =     176.01943999 Ry

     iteration # 11     ecut=    50.00 Ry     beta= 0.70
     Davidson diagonalization with overlap
     ethr =  5.02E-06,  avg # of iterations =  2.0

     negative rho (up, down):  1.710E-04 0.000E+00

     add environment contribution to local potential
     Polarization accuracy = 2.9E-12, # of iterations =  44

     total cpu time spent up to now is     2442.5 secs

     total energy              =   -3437.71930757 Ry
     estimated scf accuracy    <       0.01215686 Ry
     electrostatic embedding   =      -0.08041410 Ry
     cavitation energy         =       0.02143169 Ry
     PV energy                 =      -0.08239055 Ry
     correction to one-el term =     177.34447952 Ry

     iteration # 12     ecut=    50.00 Ry     beta= 0.70
     Davidson diagonalization with overlap
     ethr =  3.30E-06,  avg # of iterations =  5.0

     add environment contribution to local potential
     Polarization accuracy = 4.7E-12, # of iterations =  44

     total cpu time spent up to now is     2618.3 secs

     total energy              =   -3437.72059051 Ry
     estimated scf accuracy    <       0.00672317 Ry
     electrostatic embedding   =      -0.08073571 Ry
     cavitation energy         =       0.02120721 Ry
     PV energy                 =      -0.08256714 Ry
     correction to one-el term =     178.70621200 Ry

     iteration # 13     ecut=    50.00 Ry     beta= 0.70
     Davidson diagonalization with overlap
     ethr =  1.83E-06,  avg # of iterations =  6.0

     negative rho (up, down):  1.106E-05 0.000E+00

     add environment contribution to local potential
     Polarization accuracy = 9.2E-12, # of iterations =  42

     total cpu time spent up to now is     2789.8 secs

     total energy              =   -3437.72138212 Ry
     estimated scf accuracy    <       0.00429189 Ry
     electrostatic embedding   =      -0.07864628 Ry
     cavitation energy         =       0.02110549 Ry
     PV energy                 =      -0.08271027 Ry
     correction to one-el term =     179.70272014 Ry

     iteration # 14     ecut=    50.00 Ry     beta= 0.70
     Davidson diagonalization with overlap
     ethr =  1.17E-06,  avg # of iterations =  6.0

     negative rho (up, down):  1.699E-06 0.000E+00

     add environment contribution to local potential
     Polarization accuracy = 8.7E-12, # of iterations =  41

     total cpu time spent up to now is     2939.6 secs

     total energy              =   -3437.72227476 Ry
     estimated scf accuracy    <       0.00323369 Ry
     electrostatic embedding   =      -0.07649683 Ry
     cavitation energy         =       0.02095906 Ry
     PV energy                 =      -0.08288336 Ry
     correction to one-el term =     181.47994391 Ry

     iteration # 15     ecut=    50.00 Ry     beta= 0.70
     Davidson diagonalization with overlap
     ethr =  8.79E-07,  avg # of iterations =  7.0

     negative rho (up, down):  7.787E-04 0.000E+00

     add environment contribution to local potential
     Polarization accuracy = 7.3E-12, # of iterations =  41

     total cpu time spent up to now is     3103.1 secs

     total energy              =   -3437.72289579 Ry
     estimated scf accuracy    <       0.00138888 Ry
     electrostatic embedding   =      -0.07173649 Ry
     cavitation energy         =       0.02086771 Ry
     PV energy                 =      -0.08304540 Ry
     correction to one-el term =     182.97884067 Ry

     iteration # 16     ecut=    50.00 Ry     beta= 0.70
     Davidson diagonalization with overlap
     ethr =  3.77E-07,  avg # of iterations =  7.0

     negative rho (up, down):  5.438E-03 0.000E+00

     add environment contribution to local potential
     Polarization accuracy = 2.1E-12, # of iterations =  42

     total cpu time spent up to now is     3294.5 secs

     total energy              =   -3437.72321382 Ry
     estimated scf accuracy    <       0.00063560 Ry
     electrostatic embedding   =      -0.06857289 Ry
     cavitation energy         =       0.02081417 Ry
     PV energy                 =      -0.08311591 Ry
     correction to one-el term =     183.86090541 Ry

     iteration # 17     ecut=    50.00 Ry     beta= 0.70
     Davidson diagonalization with overlap
     ethr =  1.73E-07,  avg # of iterations =  7.0

     negative rho (up, down):  2.081E-03 0.000E+00

     add environment contribution to local potential
     Polarization accuracy = 7.1E-12, # of iterations =  40

     total cpu time spent up to now is     3450.4 secs

     total energy              =   -3437.72324057 Ry
     estimated scf accuracy    <       0.00028585 Ry
     electrostatic embedding   =      -0.06726836 Ry
     cavitation energy         =       0.02081176 Ry
     PV energy                 =      -0.08310051 Ry
     correction to one-el term =     184.23469340 Ry

     iteration # 18     ecut=    50.00 Ry     beta= 0.70
     Davidson diagonalization with overlap
     ethr =  7.77E-08,  avg # of iterations =  6.0

     negative rho (up, down):  1.312E-03 0.000E+00

     add environment contribution to local potential
     Polarization accuracy = 4.9E-12, # of iterations =  41

     total cpu time spent up to now is     3614.1 secs

     total energy              =   -3437.72330574 Ry
     estimated scf accuracy    <       0.00011418 Ry
     electrostatic embedding   =      -0.06582903 Ry
     cavitation energy         =       0.02084355 Ry
     PV energy                 =      -0.08306519 Ry
     correction to one-el term =     184.21637747 Ry

     iteration # 19     ecut=    50.00 Ry     beta= 0.70
     Davidson diagonalization with overlap
     ethr =  3.10E-08,  avg # of iterations =  2.0

     negative rho (up, down):  7.742E-04 0.000E+00

     add environment contribution to local potential
     Polarization accuracy = 2.7E-12, # of iterations =  42

     total cpu time spent up to now is     3774.8 secs

     total energy              =   -3437.72331649 Ry
     estimated scf accuracy    <       0.00006789 Ry
     electrostatic embedding   =      -0.06515170 Ry
     cavitation energy         =       0.02085409 Ry
     PV energy                 =      -0.08304230 Ry
     correction to one-el term =     184.26076261 Ry

     iteration # 20     ecut=    50.00 Ry     beta= 0.70
     Davidson diagonalization with overlap
     ethr =  1.84E-08,  avg # of iterations =  5.0

     negative rho (up, down):  7.106E-04 0.000E+00

     add environment contribution to local potential
     Polarization accuracy = 4.0E-12, # of iterations =  42

     total cpu time spent up to now is     3952.1 secs

     total energy              =   -3437.72332259 Ry
     estimated scf accuracy    <       0.00002448 Ry
     electrostatic embedding   =      -0.06446336 Ry
     cavitation energy         =       0.02086061 Ry
     PV energy                 =      -0.08301728 Ry
     correction to one-el term =     184.32308469 Ry

     iteration # 21     ecut=    50.00 Ry     beta= 0.70
     Davidson diagonalization with overlap
     ethr =  6.65E-09,  avg # of iterations =  2.0

     negative rho (up, down):  2.361E-04 0.000E+00

     add environment contribution to local potential
     Polarization accuracy = 4.1E-12, # of iterations =  42

     total cpu time spent up to now is     4121.4 secs

     total energy              =   -3437.72332152 Ry
     estimated scf accuracy    <       0.00000803 Ry
     electrostatic embedding   =      -0.06404670 Ry
     cavitation energy         =       0.02086416 Ry
     PV energy                 =      -0.08300581 Ry
     correction to one-el term =     184.35414298 Ry

     iteration # 22     ecut=    50.00 Ry     beta= 0.70
     Davidson diagonalization with overlap
     ethr =  2.18E-09,  avg # of iterations =  2.0

     negative rho (up, down):  1.936E-04 0.000E+00

     add environment contribution to local potential
     Polarization accuracy = 4.1E-12, # of iterations =  42

     total cpu time spent up to now is     4269.1 secs

     total energy              =   -3437.72332255 Ry
     estimated scf accuracy    <       0.00000294 Ry
     electrostatic embedding   =      -0.06400357 Ry
     cavitation energy         =       0.02086727 Ry
     PV energy                 =      -0.08299540 Ry
     correction to one-el term =     184.31880351 Ry

     iteration # 23     ecut=    50.00 Ry     beta= 0.70
     Davidson diagonalization with overlap
     ethr =  7.99E-10,  avg # of iterations =  1.0

     negative rho (up, down):  1.580E-04 0.000E+00

     add environment contribution to local potential
     Polarization accuracy = 4.1E-12, # of iterations =  42

     total cpu time spent up to now is     4480.5 secs

     total energy              =   -3437.72332313 Ry
     estimated scf accuracy    <       0.00000076 Ry
     electrostatic embedding   =      -0.06403160 Ry
     cavitation energy         =       0.02086752 Ry
     PV energy                 =      -0.08299366 Ry
     correction to one-el term =     184.30217288 Ry

     iteration # 24     ecut=    50.00 Ry     beta= 0.70
     Davidson diagonalization with overlap
     ethr =  2.07E-10,  avg # of iterations =  2.0

     negative rho (up, down):  1.674E-04 0.000E+00

     add environment contribution to local potential
     Polarization accuracy = 4.1E-12, # of iterations =  42

     total cpu time spent up to now is     4668.1 secs

     total energy              =   -3437.72332354 Ry
     estimated scf accuracy    <       0.00000031 Ry
     electrostatic embedding   =      -0.06402034 Ry
     cavitation energy         =       0.02086832 Ry
     PV energy                 =      -0.08299251 Ry
     correction to one-el term =     184.29024701 Ry

     iteration # 25     ecut=    50.00 Ry     beta= 0.70
     Davidson diagonalization with overlap
     ethr =  8.35E-11,  avg # of iterations =  2.0

     negative rho (up, down):  1.676E-04 0.000E+00

     add environment contribution to local potential
     Polarization accuracy = 3.7E-12, # of iterations =  42

     total cpu time spent up to now is     4818.4 secs

     total energy              =   -3437.72332379 Ry
     estimated scf accuracy    <       0.00000017 Ry
     electrostatic embedding   =      -0.06403103 Ry
     cavitation energy         =       0.02086868 Ry
     PV energy                 =      -0.08299391 Ry
     correction to one-el term =     184.28455580 Ry

     iteration # 26     ecut=    50.00 Ry     beta= 0.70
     Davidson diagonalization with overlap
     ethr =  4.59E-11,  avg # of iterations =  2.0

     negative rho (up, down):  1.585E-04 0.000E+00

     add environment contribution to local potential
     Polarization accuracy = 4.7E-12, # of iterations =  42

     total cpu time spent up to now is     4970.7 secs

     total energy              =   -3437.72332403 Ry
     estimated scf accuracy    <       0.00000015 Ry
     electrostatic embedding   =      -0.06404166 Ry
     cavitation energy         =       0.02086881 Ry
     PV energy                 =      -0.08299510 Ry
     correction to one-el term =     184.28197998 Ry

     iteration # 27     ecut=    50.00 Ry     beta= 0.70
     Davidson diagonalization with overlap
     ethr =  3.96E-11,  avg # of iterations =  1.0

     negative rho (up, down):  1.462E-04 0.000E+00

     add environment contribution to local potential
     Polarization accuracy = 3.8E-12, # of iterations =  42

     total cpu time spent up to now is     5129.1 secs

     total energy              =   -3437.72332427 Ry
     estimated scf accuracy    <       0.00000011 Ry
     electrostatic embedding   =      -0.06404263 Ry
     cavitation energy         =       0.02086912 Ry
     PV energy                 =      -0.08299581 Ry
     correction to one-el term =     184.27894873 Ry

     iteration # 28     ecut=    50.00 Ry     beta= 0.70
     Davidson diagonalization with overlap
     ethr =  2.85E-11,  avg # of iterations =  1.0

     negative rho (up, down):  1.334E-04 0.000E+00

     add environment contribution to local potential
     Polarization accuracy = 3.8E-12, # of iterations =  42

     total cpu time spent up to now is     5295.6 secs

     total energy              =   -3437.72332447 Ry
     estimated scf accuracy    <       0.00000008 Ry
     electrostatic embedding   =      -0.06404112 Ry
     cavitation energy         =       0.02086928 Ry
     PV energy                 =      -0.08299583 Ry
     correction to one-el term =     184.27723471 Ry

     iteration # 29     ecut=    50.00 Ry     beta= 0.70
     Davidson diagonalization with overlap
     ethr =  2.28E-11,  avg # of iterations =  1.0

     negative rho (up, down):  1.221E-04 0.000E+00

     add environment contribution to local potential
     Polarization accuracy = 3.8E-12, # of iterations =  42

     total cpu time spent up to now is     5441.8 secs

     total energy              =   -3437.72332478 Ry
     estimated scf accuracy    <       0.00000007 Ry
     electrostatic embedding   =      -0.06403360 Ry
     cavitation energy         =       0.02086947 Ry
     PV energy                 =      -0.08299613 Ry
     correction to one-el term =     184.27675906 Ry

     iteration # 30     ecut=    50.00 Ry     beta= 0.70
     Davidson diagonalization with overlap
     ethr =  1.87E-11,  avg # of iterations =  1.0

     negative rho (up, down):  1.087E-04 0.000E+00

     add environment contribution to local potential
     Polarization accuracy = 4.6E-12, # of iterations =  42

     total cpu time spent up to now is     5608.0 secs

     total energy              =   -3437.72332519 Ry
     estimated scf accuracy    <       0.00000006 Ry
     electrostatic embedding   =      -0.06402806 Ry
     cavitation energy         =       0.02086954 Ry
     PV energy                 =      -0.08299626 Ry
     correction to one-el term =     184.27694545 Ry

     iteration # 31     ecut=    50.00 Ry     beta= 0.70
     Davidson diagonalization with overlap
     ethr =  1.75E-11,  avg # of iterations =  2.0

     negative rho (up, down):  1.083E-04 0.000E+00

     add environment contribution to local potential
     Polarization accuracy = 3.5E-12, # of iterations =  42

     total cpu time spent up to now is     5761.5 secs

     total energy              =   -3437.72332579 Ry
     estimated scf accuracy    <       0.00000006 Ry
     electrostatic embedding   =      -0.06401749 Ry
     cavitation energy         =       0.02086963 Ry
     PV energy                 =      -0.08299608 Ry
     correction to one-el term =     184.27700278 Ry

     iteration # 32     ecut=    50.00 Ry     beta= 0.70
     Davidson diagonalization with overlap
     ethr =  1.53E-11,  avg # of iterations =  1.0

     negative rho (up, down):  1.014E-04 0.000E+00

     add environment contribution to local potential
     Polarization accuracy = 3.7E-12, # of iterations =  43

     total cpu time spent up to now is     5928.0 secs

     total energy              =   -3437.72332652 Ry
     estimated scf accuracy    <       0.00000006 Ry
     electrostatic embedding   =      -0.06401165 Ry
     cavitation energy         =       0.02086961 Ry
     PV energy                 =      -0.08299600 Ry
     correction to one-el term =     184.27732739 Ry

     iteration # 33     ecut=    50.00 Ry     beta= 0.70
     Davidson diagonalization with overlap
     ethr =  1.53E-11,  avg # of iterations =  2.0

     negative rho (up, down):  1.018E-04 0.000E+00

     add environment contribution to local potential
     Polarization accuracy = 4.7E-12, # of iterations =  42

     total cpu time spent up to now is     6105.2 secs

     total energy              =   -3437.72332750 Ry
     estimated scf accuracy    <       0.00000005 Ry
     electrostatic embedding   =      -0.06400191 Ry
     cavitation energy         =       0.02086962 Ry
     PV energy                 =      -0.08299596 Ry
     correction to one-el term =     184.27828555 Ry

     iteration # 34     ecut=    50.00 Ry     beta= 0.70
     Davidson diagonalization with overlap
     ethr =  1.35E-11,  avg # of iterations =  2.0

     negative rho (up, down):  1.171E-04 0.000E+00

     add environment contribution to local potential
     Polarization accuracy = 3.6E-12, # of iterations =  42

     total cpu time spent up to now is     6258.9 secs

     total energy              =   -3437.72332928 Ry
     estimated scf accuracy    <       0.00000004 Ry
     electrostatic embedding   =      -0.06399253 Ry
     cavitation energy         =       0.02086955 Ry
     PV energy                 =      -0.08299588 Ry
     correction to one-el term =     184.27957022 Ry

     iteration # 35     ecut=    50.00 Ry     beta= 0.70
     Davidson diagonalization with overlap
     ethr =  1.21E-11,  avg # of iterations =  5.0

     negative rho (up, down):  1.280E-04 0.000E+00

     add environment contribution to local potential
     Polarization accuracy = 3.4E-12, # of iterations =  42

     total cpu time spent up to now is     6424.1 secs

     total energy              =   -3437.72333453 Ry
     estimated scf accuracy    <       0.00000003 Ry
     electrostatic embedding   =      -0.06397544 Ry
     cavitation energy         =       0.02086919 Ry
     PV energy                 =      -0.08299551 Ry
     correction to one-el term =     184.28388174 Ry

     iteration # 36     ecut=    50.00 Ry     beta= 0.70
     Davidson diagonalization with overlap
     ethr =  7.57E-12,  avg # of iterations =  2.0

     negative rho (up, down):  1.308E-04 0.000E+00

     add environment contribution to local potential
     Polarization accuracy = 3.3E-12, # of iterations =  42

     total cpu time spent up to now is     6580.1 secs

     total energy              =   -3437.72333959 Ry
     estimated scf accuracy    <       0.00000002 Ry
     electrostatic embedding   =      -0.06397267 Ry
     cavitation energy         =       0.02086911 Ry
     PV energy                 =      -0.08299572 Ry
     correction to one-el term =     184.28525384 Ry

     iteration # 37     ecut=    50.00 Ry     beta= 0.70
     Davidson diagonalization with overlap
     ethr =  5.30E-12,  avg # of iterations =  5.0

     negative rho (up, down):  1.319E-04 0.000E+00

     add environment contribution to local potential
     Polarization accuracy = 3.9E-12, # of iterations =  42

     total cpu time spent up to now is     6742.0 secs

     total energy              =   -3437.72334207 Ry
     estimated scf accuracy    <       0.00000002 Ry
     electrostatic embedding   =      -0.06397847 Ry
     cavitation energy         =       0.02086915 Ry
     PV energy                 =      -0.08299587 Ry
     correction to one-el term =     184.28485337 Ry

     iteration # 38     ecut=    50.00 Ry     beta= 0.70
     Davidson diagonalization with overlap
     ethr =  4.51E-12,  avg # of iterations =  2.0

     negative rho (up, down):  1.301E-04 0.000E+00

     add environment contribution to local potential
     Polarization accuracy = 3.5E-12, # of iterations =  42

     total cpu time spent up to now is     6895.4 secs

     total energy              =   -3437.72334441 Ry
     estimated scf accuracy    <       0.00000001 Ry
     electrostatic embedding   =      -0.06399863 Ry
     cavitation energy         =       0.02086929 Ry
     PV energy                 =      -0.08299612 Ry
     correction to one-el term =     184.28232407 Ry

     iteration # 39     ecut=    50.00 Ry     beta= 0.70
     Davidson diagonalization with overlap
     ethr =  3.17E-12,  avg # of iterations =  2.0

     negative rho (up, down):  1.290E-04 0.000E+00

     add environment contribution to local potential
     Polarization accuracy = 3.9E-12, # of iterations =  42

     total cpu time spent up to now is     7056.9 secs

     total energy              =   -3437.72334644 Ry
     estimated scf accuracy    <       0.00000001 Ry
     electrostatic embedding   =      -0.06399381 Ry
     cavitation energy         =       0.02086927 Ry
     PV energy                 =      -0.08299600 Ry
     correction to one-el term =     184.28261090 Ry

     iteration # 40     ecut=    50.00 Ry     beta= 0.70
     Davidson diagonalization with overlap
     ethr =  3.07E-12,  avg # of iterations =  2.0

     negative rho (up, down):  1.265E-04 0.000E+00

     add environment contribution to local potential
     Polarization accuracy = 3.5E-12, # of iterations =  42

     total cpu time spent up to now is     7228.5 secs

     total energy              =   -3437.72334862 Ry
     estimated scf accuracy    <          5.0E-09 Ry
     electrostatic embedding   =      -0.06400361 Ry
     cavitation energy         =       0.02086934 Ry
     PV energy                 =      -0.08299608 Ry
     correction to one-el term =     184.28116236 Ry

     iteration # 41     ecut=    50.00 Ry     beta= 0.70
     Davidson diagonalization with overlap
     ethr =  1.36E-12,  avg # of iterations =  5.0

     negative rho (up, down):  1.225E-04 0.000E+00

     add environment contribution to local potential
     Polarization accuracy = 3.5E-12, # of iterations =  42

     total cpu time spent up to now is     7379.2 secs

     total energy              =   -3437.72334955 Ry
     estimated scf accuracy    <          1.4E-09 Ry
     electrostatic embedding   =      -0.06401309 Ry
     cavitation energy         =       0.02086941 Ry
     PV energy                 =      -0.08299611 Ry
     correction to one-el term =     184.27959534 Ry

     iteration # 42     ecut=    50.00 Ry     beta= 0.70
     Davidson diagonalization with overlap
     ethr =  3.79E-13,  avg # of iterations =  2.0

     negative rho (up, down):  1.194E-04 0.000E+00

     the potential shift due to the Gaussian-smeared nuclei is    -1.3368 ev

     total cpu time spent up to now is     7553.7 secs

     End of self-consistent calculation

          k = 0.2500 0.2666 0.0000 ( 35123 PWs)   bands (ev):

   -76.8113 -76.8029 -76.7981 -76.7897 -76.6738 -76.6603 -76.6537 -76.6533
   -76.6403 -76.6012 -76.5654 -76.5576 -47.0705 -47.0603 -47.0573 -47.0471
   -46.9009 -46.8998 -46.8944 -46.8873 -46.8690 -46.8476 -46.8379 -46.8315
   -46.8195 -46.8181 -46.7390 -46.7259 -46.7052 -46.6872 -46.6738 -46.6558
   -46.6424 -46.6361 -46.6231 -46.5886 -46.5870 -46.5751 -46.5138 -46.5040
   -46.5003 -46.4991 -46.4857 -46.4597 -46.4180 -46.4109 -46.3847 -46.3677
   -25.7140 -25.6950 -23.2461 -23.0607 -22.9352 -22.8035 -22.6132 -22.5639
   -22.4923 -22.4636 -22.3795 -22.1938 -22.1736 -22.1382 -22.0916 -22.0054
   -21.9809 -21.9461 -21.8947 -21.8290 -21.8060 -21.7737 -21.7027 -21.6917
   -21.5683 -21.5483 -21.2847 -21.1505 -13.4891 -13.4702 -11.4225 -11.2435
   -11.2288 -11.2061 -11.1832 -10.7583 -10.7357 -10.6414 -10.6072 -10.5660
   -10.4969 -10.4891 -10.3899 -10.2927 -10.2245 -10.2022 -10.1660 -10.1323
   -10.1174  -9.9392  -9.9137  -9.8734  -9.7928  -9.6728  -9.4911  -9.4448
    -9.4226  -9.3812  -9.3594  -9.1692  -9.1354  -9.0843  -8.9724  -8.9686
    -8.8783  -8.6975  -8.5558  -8.5163  -8.4086  -8.3278  -8.2819  -8.2164
    -8.1964  -8.0479  -7.9975  -7.9102  -7.8486  -7.7785  -7.5794  -7.5450
    -7.5345  -7.4199  -7.4175  -7.3969  -7.3131  -7.3062  -7.2672  -7.1951
    -7.1604  -7.0429  -7.0302  -6.9270  -6.9026  -6.7624  -6.6556  -6.6049
    -6.4713  -6.4616  -6.2758  -6.2615  -6.1922  -6.1630  -6.1558  -5.9305
    -5.8969  -5.8102  -5.8038  -5.7201  -5.6318  -5.5871  -5.3938  -5.3681
    -4.4164  -4.2641  -4.2565  -4.2126  -4.1541  -4.1167  -4.0467  -4.0117
    -4.0032  -3.9674  -3.9382  -3.9011  -3.8837  -3.8353  -3.7871  -3.7736
    -3.6908  -3.6682  -3.6085  -3.5722  -3.5230  -3.3945  -3.3412  -3.2957
    -3.2080  -3.1238  -2.8404  -2.8305  -2.6403  -2.4503  -2.4165  -2.3651
    -2.3264  -2.2760  -2.1304  -1.9590  -1.6307  -1.2011  -1.0106  -0.9672
    -0.8445  -0.8047  -0.5677  -0.4210  -0.1631   0.0853   0.3849   0.4730
     0.4966   0.7007   0.8016   0.8246   0.9255   1.0355   1.0597   1.1319
     1.2250   1.3554   1.4412   1.4537   1.5603

     the Fermi energy is    -3.2486 ev

!    total energy              =   -3437.72335001 Ry
     estimated scf accuracy    <          5.3E-10 Ry
     smearing contrib. (-TS)   =       0.07280719 Ry
     internal energy E=F+TS    =   -3437.79615720 Ry

     The total energy is F=E-TS. E is the sum of the following terms:
     one-electron contribution =  -25233.80913700 Ry
     hartree contribution      =   12609.64818389 Ry
     xc contribution           =    -449.69431510 Ry
     ewald contribution        =    9718.39257600 Ry
     one-center paw contrib.   =    -266.48579385 Ry
     electrostatic embedding   =      -0.06401788 Ry
     cavitation energy         =       0.02086946 Ry
     PV energy                 =      -0.08299605 Ry
     correction to one-el term =     184.27847332 Ry

     WARNING: you are using the parabolic pbc correction;
              the potential shift above must be added to 
              band and Fermi energies.

     convergence has been achieved in  42 iterations

     negative rho (up, down):  1.194E-04 0.000E+00

     Forces acting on atoms (cartesian axes, Ry/au):

     atom    1 type  1   force =    -0.00043537    0.00000000   -0.00107134
     atom    2 type  1   force =     0.00005092    0.00000000    0.00060385
     atom    3 type  1   force =     0.00065684    0.00000000    0.00069133
     atom    4 type  1   force =    -0.00007172    0.00000000   -0.00003172
     atom    5 type  2   force =     0.00018997    0.00000000   -0.00008861
     atom    6 type  2   force =     0.00003723    0.00000000   -0.00032022
     atom    7 type  1   force =    -0.00034318    0.00012504   -0.00014316
     atom    8 type  1   force =    -0.00001668    0.00012922   -0.00041178
     atom    9 type  2   force =    -0.00002037    0.00000000    0.00008910
     atom   10 type  2   force =     0.00050165    0.00000000   -0.00044539
     atom   11 type  1   force =    -0.00034318   -0.00012504   -0.00014316
     atom   12 type  1   force =    -0.00001668   -0.00012922   -0.00041178
     atom   13 type  1   force =    -0.00046093    0.00000000   -0.00091032
     atom   14 type  1   force =     0.00001132    0.00000000   -0.00095681
     atom   15 type  1   force =     0.00047264    0.00000000    0.00094571
     atom   16 type  1   force =     0.00062597    0.00000000    0.00013982
     atom   17 type  2   force =    -0.00041631    0.00000000    0.00000000
     atom   18 type  2   force =    -0.00032350    0.00000000    0.00000000
     atom   19 type  1   force =    -0.00099583   -0.00032321    0.00000000
     atom   20 type  1   force =     0.00014814   -0.00030183    0.00000000
     atom   21 type  2   force =    -0.00030506    0.00000000    0.00000000
     atom   22 type  2   force =    -0.00052608    0.00000000    0.00000000
     atom   23 type  1   force =    -0.00099583    0.00032321    0.00000000
     atom   24 type  1   force =     0.00014814    0.00030183    0.00000000
     atom   25 type  1   force =     0.00047264    0.00000000   -0.00094571
     atom   26 type  1   force =     0.00062597    0.00000000   -0.00013982
     atom   27 type  1   force =    -0.00046093    0.00000000    0.00091032
     atom   28 type  1   force =     0.00001132    0.00000000    0.00095681
     atom   29 type  2   force =     0.00018997    0.00000000    0.00008861
     atom   30 type  2   force =     0.00003723    0.00000000    0.00032022
     atom   31 type  1   force =    -0.00034318    0.00012504    0.00014316
     atom   32 type  1   force =    -0.00001668    0.00012922    0.00041178
     atom   33 type  2   force =    -0.00002037    0.00000000   -0.00008910
     atom   34 type  2   force =     0.00050165    0.00000000    0.00044539
     atom   35 type  1   force =    -0.00034318   -0.00012504    0.00014316
     atom   36 type  1   force =    -0.00001668   -0.00012922    0.00041178
     atom   37 type  1   force =     0.00065684    0.00000000   -0.00069133
     atom   38 type  1   force =    -0.00007172    0.00000000    0.00003172
     atom   39 type  1   force =    -0.00043537    0.00000000    0.00107134
     atom   40 type  1   force =     0.00005092    0.00000000   -0.00060385
     atom   41 type  3   force =     0.00062154    0.00000000    0.00114937
     atom   42 type  3   force =     0.00062154    0.00000000   -0.00114937
     atom   43 type  3   force =     0.00052749    0.00000000   -0.00101702
     atom   44 type  3   force =     0.00052749    0.00000000    0.00101702
     atom   45 type  3   force =    -0.00017714   -0.00041311   -0.00027145
     atom   46 type  3   force =    -0.00017714   -0.00041311    0.00027145
     atom   47 type  3   force =    -0.00017714    0.00041311   -0.00027145
     atom   48 type  3   force =    -0.00017714    0.00041311    0.00027145
     The non-local contrib.  to forces
     atom    1 type  1   force =     1.71621671    0.00000000    0.29991145
     atom    2 type  1   force =     1.75429948    0.00000000    0.28558083
     atom    3 type  1   force =    -0.05817792    0.00000000   -1.43829939
     atom    4 type  1   force =     0.00394214    0.00000000    1.14910868
     atom    5 type  2   force =    -0.01395736    0.00000000   -0.01210366
     atom    6 type  2   force =     0.01009247    0.00000000   -0.00604281
     atom    7 type  1   force =     0.00374808   -0.07464246    0.00013156
     atom    8 type  1   force =    -0.02320743   -0.08056090    0.00972752
     atom    9 type  2   force =    -0.00110720    0.00000000    0.03433153
     atom   10 type  2   force =     0.00590269    0.00000000    0.04992635
     atom   11 type  1   force =     0.00374808    0.07464246    0.00013156
     atom   12 type  1   force =    -0.02320743    0.08056090    0.00972752
     atom   13 type  1   force =     0.00391248    0.00000000    0.10588699
     atom   14 type  1   force =    -0.00351203    0.00000000   -0.21740648
     atom   15 type  1   force =    -0.00247587    0.00000000   -0.04414780
     atom   16 type  1   force =     0.00399733    0.00000000    0.02931807
     atom   17 type  2   force =     0.00111937    0.00000000    0.00000000
     atom   18 type  2   force =     0.00223290    0.00000000    0.00000000
     atom   19 type  1   force =     0.01380827    0.04343884    0.00000000
     atom   20 type  1   force =    -0.01488147    0.04470399    0.00000000
     atom   21 type  2   force =     0.00417073    0.00000000    0.00000000
     atom   22 type  2   force =     0.00486944    0.00000000    0.00000000
     atom   23 type  1   force =     0.01380827   -0.04343884    0.00000000
     atom   24 type  1   force =    -0.01488147   -0.04470399    0.00000000
     atom   25 type  1   force =    -0.00247587    0.00000000    0.04414780
     atom   26 type  1   force =     0.00399733    0.00000000   -0.02931807
     atom   27 type  1   force =     0.00391248    0.00000000   -0.10588699
     atom   28 type  1   force =    -0.00351203    0.00000000    0.21740648
     atom   29 type  2   force =    -0.01395736    0.00000000    0.01210366
     atom   30 type  2   force =     0.01009247    0.00000000    0.00604281
     atom   31 type  1   force =     0.00374808   -0.07464246   -0.00013156
     atom   32 type  1   force =    -0.02320743   -0.08056090   -0.00972752
     atom   33 type  2   force =    -0.00110720    0.00000000   -0.03433153
     atom   34 type  2   force =     0.00590269    0.00000000   -0.04992635
     atom   35 type  1   force =     0.00374808    0.07464246   -0.00013156
     atom   36 type  1   force =    -0.02320743    0.08056090   -0.00972752
     atom   37 type  1   force =    -0.05817792    0.00000000    1.43829939
     atom   38 type  1   force =     0.00394214    0.00000000   -1.14910868
     atom   39 type  1   force =     1.71621671    0.00000000   -0.29991145
     atom   40 type  1   force =     1.75429948    0.00000000   -0.28558083
     atom   41 type  3   force =    -0.10082567    0.00000000    0.03378997
     atom   42 type  3   force =    -0.10082567    0.00000000   -0.03378997
     atom   43 type  3   force =    -0.10014669    0.00000000    0.03824068
     atom   44 type  3   force =    -0.10014669    0.00000000   -0.03824068
     atom   45 type  3   force =     0.00163460   -0.08669227    0.06037432
     atom   46 type  3   force =     0.00163460   -0.08669227   -0.06037432
     atom   47 type  3   force =     0.00163460    0.08669227    0.06037432
     atom   48 type  3   force =     0.00163460    0.08669227   -0.06037432
     The ionic contribution  to forces
     atom    1 type  1   force =    -2.97705524    0.00000015  -93.75326654
     atom    2 type  1   force =    -2.79420501    0.00000015  -94.83418160
     atom    3 type  1   force =     0.20817848   -0.00000024  -88.30370180
     atom    4 type  1   force =    -0.02609262   -0.00000035  -94.58093490
     atom    5 type  2   force =    -6.33491999   -0.00000267 -170.31326815
     atom    6 type  2   force =     6.24515245   -0.00000267 -170.02465481
     atom    7 type  1   force =    -0.67889486   -1.33421498  -63.61922900
     atom    8 type  1   force =     0.71697955   -1.22158755  -64.02279670
     atom    9 type  2   force =    -0.35705977    0.00000351 -167.18078454
     atom   10 type  2   force =     0.27129733    0.00000331 -169.92027176
     atom   11 type  1   force =    -0.67889486    1.33421565  -63.61922646
     atom   12 type  1   force =     0.71697955    1.22158821  -64.02279419
     atom   13 type  1   force =    -0.06929558   -0.00000206  -39.75027605
     atom   14 type  1   force =     0.02036806   -0.00000207  -36.38166552
     atom   15 type  1   force =    -0.05418003    0.00001022  -25.19858296
     atom   16 type  1   force =     0.02767788    0.00000982  -25.80099500
     atom   17 type  2   force =    -0.03664895    0.00001271   -0.00043171
     atom   18 type  2   force =     0.10866271    0.00001202   -0.00046271
     atom   19 type  1   force =    -0.23369638    0.95864257   -0.00008190
     atom   20 type  1   force =     0.22039633    0.95431713   -0.00008137
     atom   21 type  2   force =     0.03369651    0.00011221   -0.00026073
     atom   22 type  2   force =    -0.00527156    0.00011217   -0.00025930
     atom   23 type  1   force =    -0.23369620   -0.95878562   -0.00008190
     atom   24 type  1   force =     0.22039552   -0.95446010   -0.00008137
     atom   25 type  1   force =    -0.05418035    0.00001022   25.19837323
     atom   26 type  1   force =     0.02767686    0.00000982   25.80080915
     atom   27 type  1   force =    -0.06929615   -0.00000206   39.75055329
     atom   28 type  1   force =     0.02036784   -0.00000207   36.38198299
     atom   29 type  2   force =    -6.33480287   -0.00000267  170.31355294
     atom   30 type  2   force =     6.24504001   -0.00000267  170.02494163
     atom   31 type  1   force =    -0.67888889   -1.33424461   63.61929252
     atom   32 type  1   force =     0.71697627   -1.22161714   64.02286000
     atom   33 type  2   force =    -0.35706673    0.00000351  167.18091777
     atom   34 type  2   force =     0.27129131    0.00000331  169.92040043
     atom   35 type  1   force =    -0.67888889    1.33424528   63.61928998
     atom   36 type  1   force =     0.71697627    1.22161780   64.02285750
     atom   37 type  1   force =     0.20818082   -0.00000024   88.30370006
     atom   38 type  1   force =    -0.02609305   -0.00000035   94.58104473
     atom   39 type  1   force =    -2.97712223    0.00000015   93.75339797
     atom   40 type  1   force =    -2.79427990    0.00000015   94.83430266
     atom   41 type  3   force =     2.92357947    0.00000002  -16.06455359
     atom   42 type  3   force =     2.92364917    0.00000002   16.06455342
     atom   43 type  3   force =     2.90732328    0.00000002  -16.20891068
     atom   44 type  3   force =     2.90740347    0.00000002   16.20891990
     atom   45 type  3   force =    -0.05192810    2.29425395  -16.77841476
     atom   46 type  3   force =    -0.05193141    2.29446995   16.77845730
     atom   47 type  3   force =    -0.05192810   -2.29425398  -16.77841473
     atom   48 type  3   force =    -0.05193141   -2.29446998   16.77845726
     The local contribution  to forces
     atom    1 type  1   force =     1.26693102    0.00000000   93.44883578
     atom    2 type  1   force =     1.03568112    0.00000000   94.49183651
     atom    3 type  1   force =    -0.14757114    0.00000000   89.86801066
     atom    4 type  1   force =     0.01651131   -0.00000000   93.36541205
     atom    5 type  2   force =     6.41978298    0.00000000  170.32631800
     atom    6 type  2   force =    -6.32526244   -0.00000000  170.03943120
     atom    7 type  1   force =     0.69593156    1.41244295   63.61475950
     atom    8 type  1   force =    -0.71434253    1.30587346   64.01162221
     atom    9 type  2   force =     0.36077707    0.00000000  167.17095423
     atom   10 type  2   force =    -0.28209820    0.00000000  169.81528655
     atom   11 type  1   force =     0.69593156   -1.41244295   63.61475950
     atom   12 type  1   force =    -0.71434253   -1.30587346   64.01162221
     atom   13 type  1   force =     0.06542643   -0.00000000   39.65316880
     atom   14 type  1   force =    -0.01742066   -0.00000000   36.58833784
     atom   15 type  1   force =     0.05733721    0.00000000   25.24443463
     atom   16 type  1   force =    -0.03128294    0.00000000   25.76823591
     atom   17 type  2   force =     0.03550977    0.00000000   -0.00589669
     atom   18 type  2   force =    -0.11162110    0.00000000   -0.00582329
     atom   19 type  1   force =     0.22116848   -1.00219423   -0.00245172
     atom   20 type  1   force =    -0.20765577   -0.99910140   -0.00245250
     atom   21 type  2   force =    -0.03298998    0.00000000   -0.00600865
     atom   22 type  2   force =    -0.00530263    0.00000000   -0.00601200
     atom   23 type  1   force =     0.22116829    1.00183728   -0.00245172
     atom   24 type  1   force =    -0.20765503    0.99874440   -0.00245250
     atom   25 type  1   force =     0.05733754   -0.00000000  -25.24618575
     atom   26 type  1   force =    -0.03128537    0.00000000  -25.76998307
     atom   27 type  1   force =     0.06542717   -0.00000000  -39.65497812
     atom   28 type  1   force =    -0.01742013   -0.00000000  -36.59007537
     atom   29 type  2   force =     6.41982402    0.00000000 -170.33235224
     atom   30 type  2   force =    -6.32529655    0.00000000 -170.04546096
     atom   31 type  1   force =     0.69593877    1.41245153  -63.61720526
     atom   32 type  1   force =    -0.71434921    1.30588008  -64.01406882
     atom   33 type  2   force =     0.36077963   -0.00000000 -167.17677771
     atom   34 type  2   force =    -0.28210193    0.00000000 -169.82111661
     atom   35 type  1   force =     0.69593877   -1.41245153  -63.61720526
     atom   36 type  1   force =    -0.71434921   -1.30588008  -64.01406882
     atom   37 type  1   force =    -0.14756502    0.00000000  -89.87169714
     atom   38 type  1   force =     0.01651171    0.00000000  -93.36922040
     atom   39 type  1   force =     1.26695272   -0.00000000  -93.45043014
     atom   40 type  1   force =     1.03569998    0.00000000  -94.49339292
     atom   41 type  3   force =    -2.81442720   -0.00000000   16.03352741
     atom   42 type  3   force =    -2.81442720    0.00000000  -16.03352741
     atom   43 type  3   force =    -2.82054027    0.00000000   16.16939892
     atom   44 type  3   force =    -2.82054027    0.00000000  -16.16939892
     atom   45 type  3   force =     0.04984215   -2.19815178   16.75465553
     atom   46 type  3   force =     0.04984215   -2.19815178  -16.75465553
     atom   47 type  3   force =     0.04984215    2.19815178   16.75465553
     atom   48 type  3   force =     0.04984215    2.19815178  -16.75465553
     The core correction contribution to forces
     atom    1 type  1   force =    -0.01710125   -0.00000000   -0.00348429
     atom    2 type  1   force =    -0.01759050    0.00000000   -0.00309282
     atom    3 type  1   force =     0.00054860   -0.00000000    0.01358307
     atom    4 type  1   force =    -0.00004447   -0.00000000   -0.01157087
     atom    5 type  2   force =     0.00000000    0.00000000    0.00000000
     atom    6 type  2   force =     0.00000000    0.00000000    0.00000000
     atom    7 type  1   force =    -0.00002572    0.00051778    0.00001170
     atom    8 type  1   force =     0.00026612    0.00058351   -0.00006812
     atom    9 type  2   force =     0.00000000    0.00000000    0.00000000
     atom   10 type  2   force =     0.00000000    0.00000000    0.00000000
     atom   11 type  1   force =    -0.00002572   -0.00051778    0.00001170
     atom   12 type  1   force =     0.00026612   -0.00058352   -0.00006812
     atom   13 type  1   force =    -0.00003111   -0.00000000   -0.00117478
     atom   14 type  1   force =     0.00006100   -0.00000000    0.00244484
     atom   15 type  1   force =     0.00003506    0.00000000    0.00028247
     atom   16 type  1   force =    -0.00004284   -0.00000000   -0.00057638
     atom   17 type  2   force =     0.00000000    0.00000000    0.00000000
     atom   18 type  2   force =     0.00000000    0.00000000    0.00000000
     atom   19 type  1   force =    -0.00019127   -0.00015248   -0.00000203
     atom   20 type  1   force =     0.00020862   -0.00016652   -0.00000203
     atom   21 type  2   force =     0.00000000    0.00000000    0.00000000
     atom   22 type  2   force =     0.00000000    0.00000000    0.00000000
     atom   23 type  1   force =    -0.00019127    0.00015192   -0.00000203
     atom   24 type  1   force =     0.00020862    0.00016596   -0.00000203
     atom   25 type  1   force =     0.00003504   -0.00000000   -0.00028469
     atom   26 type  1   force =    -0.00004286   -0.00000000    0.00057422
     atom   27 type  1   force =    -0.00003111    0.00000000    0.00117250
     atom   28 type  1   force =     0.00006102    0.00000000   -0.00244726
     atom   29 type  2   force =     0.00000000    0.00000000    0.00000000
     atom   30 type  2   force =     0.00000000    0.00000000    0.00000000
     atom   31 type  1   force =    -0.00002560    0.00051783   -0.00001365
     atom   32 type  1   force =     0.00026603    0.00058358    0.00006616
     atom   33 type  2   force =     0.00000000    0.00000000    0.00000000
     atom   34 type  2   force =     0.00000000    0.00000000    0.00000000
     atom   35 type  1   force =    -0.00002560   -0.00051783   -0.00001365
     atom   36 type  1   force =     0.00026603   -0.00058358    0.00006616
     atom   37 type  1   force =     0.00054865   -0.00000000   -0.01358679
     atom   38 type  1   force =    -0.00004446   -0.00000000    0.01156712
     atom   39 type  1   force =    -0.01710203   -0.00000000    0.00348196
     atom   40 type  1   force =    -0.01759129   -0.00000000    0.00309049
     atom   41 type  3   force =     0.00000000    0.00000000    0.00000000
     atom   42 type  3   force =     0.00000000    0.00000000    0.00000000
     atom   43 type  3   force =     0.00000000    0.00000000    0.00000000
     atom   44 type  3   force =     0.00000000    0.00000000    0.00000000
     atom   45 type  3   force =     0.00000000    0.00000000    0.00000000
     atom   46 type  3   force =     0.00000000    0.00000000    0.00000000
     atom   47 type  3   force =     0.00000000    0.00000000    0.00000000
     atom   48 type  3   force =     0.00000000    0.00000000    0.00000000
     The Hubbard contrib.    to forces
     atom    1 type  1   force =     0.00000000    0.00000000    0.00000000
     atom    2 type  1   force =     0.00000000    0.00000000    0.00000000
     atom    3 type  1   force =     0.00000000    0.00000000    0.00000000
     atom    4 type  1   force =     0.00000000    0.00000000    0.00000000
     atom    5 type  2   force =     0.00000000    0.00000000    0.00000000
     atom    6 type  2   force =     0.00000000    0.00000000    0.00000000
     atom    7 type  1   force =     0.00000000    0.00000000    0.00000000
     atom    8 type  1   force =     0.00000000    0.00000000    0.00000000
     atom    9 type  2   force =     0.00000000    0.00000000    0.00000000
     atom   10 type  2   force =     0.00000000    0.00000000    0.00000000
     atom   11 type  1   force =     0.00000000    0.00000000    0.00000000
     atom   12 type  1   force =     0.00000000    0.00000000    0.00000000
     atom   13 type  1   force =     0.00000000    0.00000000    0.00000000
     atom   14 type  1   force =     0.00000000    0.00000000    0.00000000
     atom   15 type  1   force =     0.00000000    0.00000000    0.00000000
     atom   16 type  1   force =     0.00000000    0.00000000    0.00000000
     atom   17 type  2   force =     0.00000000    0.00000000    0.00000000
     atom   18 type  2   force =     0.00000000    0.00000000    0.00000000
     atom   19 type  1   force =     0.00000000    0.00000000    0.00000000
     atom   20 type  1   force =     0.00000000    0.00000000    0.00000000
     atom   21 type  2   force =     0.00000000    0.00000000    0.00000000
     atom   22 type  2   force =     0.00000000    0.00000000    0.00000000
     atom   23 type  1   force =     0.00000000    0.00000000    0.00000000
     atom   24 type  1   force =     0.00000000    0.00000000    0.00000000
     atom   25 type  1   force =     0.00000000    0.00000000    0.00000000
     atom   26 type  1   force =     0.00000000    0.00000000    0.00000000
     atom   27 type  1   force =     0.00000000    0.00000000    0.00000000
     atom   28 type  1   force =     0.00000000    0.00000000    0.00000000
     atom   29 type  2   force =     0.00000000    0.00000000    0.00000000
     atom   30 type  2   force =     0.00000000    0.00000000    0.00000000
     atom   31 type  1   force =     0.00000000    0.00000000    0.00000000
     atom   32 type  1   force =     0.00000000    0.00000000    0.00000000
     atom   33 type  2   force =     0.00000000    0.00000000    0.00000000
     atom   34 type  2   force =     0.00000000    0.00000000    0.00000000
     atom   35 type  1   force =     0.00000000    0.00000000    0.00000000
     atom   36 type  1   force =     0.00000000    0.00000000    0.00000000
     atom   37 type  1   force =     0.00000000    0.00000000    0.00000000
     atom   38 type  1   force =     0.00000000    0.00000000    0.00000000
     atom   39 type  1   force =     0.00000000    0.00000000    0.00000000
     atom   40 type  1   force =     0.00000000    0.00000000    0.00000000
     atom   41 type  3   force =     0.00000000    0.00000000    0.00000000
     atom   42 type  3   force =     0.00000000    0.00000000    0.00000000
     atom   43 type  3   force =     0.00000000    0.00000000    0.00000000
     atom   44 type  3   force =     0.00000000    0.00000000    0.00000000
     atom   45 type  3   force =     0.00000000    0.00000000    0.00000000
     atom   46 type  3   force =     0.00000000    0.00000000    0.00000000
     atom   47 type  3   force =     0.00000000    0.00000000    0.00000000
     atom   48 type  3   force =     0.00000000    0.00000000    0.00000000
     The SCF correction term to forces
     atom    1 type  1   force =    -0.00000564   -0.00000001    0.00000419
     atom    2 type  1   force =     0.00001011   -0.00000001   -0.00000267
     atom    3 type  1   force =    -0.00000274    0.00000001    0.00000513
     atom    4 type  1   force =     0.00000355    0.00000002   -0.00000244
     atom    5 type  2   force =     0.00000515    0.00000007   -0.00002667
     atom    6 type  2   force =    -0.00000487    0.00000007   -0.00002994
     atom    7 type  1   force =     0.00000270   -0.00000534   -0.00000412
     atom    8 type  1   force =    -0.00000332   -0.00000388   -0.00000619
     atom    9 type  2   force =    -0.00000939   -0.00000007   -0.00000603
     atom   10 type  2   force =     0.00001076   -0.00000007   -0.00000971
     atom   11 type  1   force =     0.00000270    0.00000532   -0.00000413
     atom   12 type  1   force =    -0.00000332    0.00000386   -0.00000620
     atom   13 type  1   force =    -0.00000196    0.00000003   -0.00001525
     atom   14 type  1   force =     0.00000200    0.00000003   -0.00000724
     atom   15 type  1   force =    -0.00000571   -0.00000004    0.00000151
     atom   16 type  1   force =     0.00000568   -0.00000004    0.00000098
     atom   17 type  2   force =    -0.00000575    0.00000011    0.00002164
     atom   18 type  2   force =     0.00000565    0.00000011    0.00002168
     atom   19 type  1   force =     0.00000868    0.00000061    0.00000800
     atom   20 type  1   force =    -0.00000872    0.00000579    0.00000800
     atom   21 type  2   force =     0.00000763   -0.00000012    0.00002141
     atom   22 type  2   force =    -0.00000733   -0.00000012    0.00002141
     atom   23 type  1   force =     0.00000868   -0.00000057    0.00000800
     atom   24 type  1   force =    -0.00000872   -0.00000575    0.00000800
     atom   25 type  1   force =    -0.00000571   -0.00000004    0.00001238
     atom   26 type  1   force =     0.00000568   -0.00000004    0.00001279
     atom   27 type  1   force =    -0.00000196    0.00000003    0.00002569
     atom   28 type  1   force =     0.00000201    0.00000003    0.00001794
     atom   29 type  2   force =     0.00000542    0.00000007    0.00003657
     atom   30 type  2   force =    -0.00000514    0.00000007    0.00003985
     atom   31 type  1   force =     0.00000272   -0.00000534    0.00000783
     atom   32 type  1   force =    -0.00000335   -0.00000389    0.00000983
     atom   33 type  2   force =    -0.00000938   -0.00000007    0.00001639
     atom   34 type  2   force =     0.00001075   -0.00000007    0.00001925
     atom   35 type  1   force =     0.00000272    0.00000532    0.00000784
     atom   36 type  1   force =    -0.00000335    0.00000387    0.00000984
     atom   37 type  1   force =    -0.00000275    0.00000001   -0.00000821
     atom   38 type  1   force =     0.00000356    0.00000002    0.00000026
     atom   39 type  1   force =    -0.00000559   -0.00000001   -0.00000858
     atom   40 type  1   force =     0.00001015   -0.00000001   -0.00000173
     atom   41 type  3   force =     0.00000043   -0.00000000    0.00000021
     atom   42 type  3   force =     0.00000038   -0.00000000   -0.00000100
     atom   43 type  3   force =    -0.00000065   -0.00000000    0.00000039
     atom   44 type  3   force =    -0.00000069   -0.00000000   -0.00000119
     atom   45 type  3   force =    -0.00000042   -0.00000140    0.00000113
     atom   46 type  3   force =    -0.00000042   -0.00000145   -0.00000187
     atom   47 type  3   force =    -0.00000042    0.00000140    0.00000113
     atom   48 type  3   force =    -0.00000042    0.00000145   -0.00000187

     Total force =     0.005000     Total SCF correction =     0.000107

     BFGS Geometry Optimization
     Energy error            =      0.0E+00 Ry
     Gradient error          =      1.1E-03 Ry/Bohr

     number of scf cycles    =   1
     number of bfgs steps    =   0

     energy             new  =   -3437.7233500129 Ry

     new trust radius        =       0.0013066552 bohr
     new conv_thr            =       0.0000000010 Ry


ATOMIC_POSITIONS (crystal)
O            -0.0012243106        0.5000000000        0.2668973098
O             0.4904576190        0.5000000000        0.2674012453
O            -0.0033102239        0.0000000000        0.2896518334
O             0.4988082078        0.0000000000        0.3070046053
Ru            0.2604878302        0.0000000000        0.3575641918
Ru            0.7371674698        0.0000000000        0.3575218207
O             0.2479149467        0.3118824392        0.3569178199
O             0.7503517668        0.3120404805        0.3563696147
Ru           -0.0005687220        0.5000000000        0.3583054939
Ru            0.4989876407        0.5000000000        0.3560498228
O             0.2479149467        0.6881175608        0.3569178199
O             0.7503517668        0.6879595195        0.3563696147
O            -0.0008821499        0.0000000000        0.4108046069
O             0.4989720957        0.0000000000        0.4117957096
O            -0.0007680029        0.5000000000        0.4458434185
O             0.4994589628        0.5000000000        0.4442989541
Ru           -0.0005821002        0.0000000000        0.5000010000
Ru            0.4993395537        0.0000000000        0.5000010000
O             0.2487329201        0.1879421409        0.5000010000
O             0.7502825883        0.1879173460        0.5000010000
Ru            0.2504992751        0.5000000000        0.5000010000
Ru            0.7476703941        0.5000000000        0.5000010000
O             0.2487329201        0.8120588591        0.5000010000
O             0.7502825883        0.8120836540        0.5000010000
O            -0.0007680029        0.5000000000        0.5541575815
O             0.4994589628        0.5000000000        0.5557020459
O            -0.0008821499        0.0000000000        0.5891963931
O             0.4989720957        0.0000000000        0.5882052904
Ru            0.2604878302        0.0000000000        0.6424368082
Ru            0.7371674698        0.0000000000        0.6424791793
O             0.2479149467        0.3118824392        0.6430831801
O             0.7503517668        0.3120404805        0.6436313853
Ru           -0.0005687220        0.5000000000        0.6416955061
Ru            0.4989876407        0.5000000000        0.6439511772
O             0.2479149467        0.6881175608        0.6430831801
O             0.7503517668        0.6879595195        0.6436313853
O            -0.0033102239        0.0000000000        0.7103501666
O             0.4988082078        0.0000000000        0.6929973947
O            -0.0012243106        0.5000000000        0.7331036902
O             0.4904576190        0.5000000000        0.7325997547
H             0.1427974841        0.5000000000        0.2534238947
H             0.1427974841        0.5000000000        0.7465761053
H             0.6321845738        0.5000000000        0.2521686160
H             0.6321845738        0.5000000000        0.7478313840
H            -0.0056554855        0.1326579008        0.2635826121
H            -0.0056554855        0.1326579008        0.7364173879
H            -0.0056554855        0.8673420992        0.2635826121
H            -0.0056554855        0.8673420992        0.7364173879



     Writing config-only to output data dir /storage/home/mgm6007/ixd4/Maria/Strain2_Files/RuO2-110-0-0124/RuO2-110-0-0124.save/
     NEW-OLD atomic charge density approx. for the potential

     Check: negative core charge=   -0.000001

     negative rho (up, down):  1.194E-04 0.000E+00

     add environment contribution to local potential
     Polarization accuracy = 4.5E-12, # of iterations =  42

     total cpu time spent up to now is     7726.6 secs

     per-process dynamical memory:   205.5 Mb

     Self-consistent Calculation

     iteration #  1     ecut=    50.00 Ry     beta= 0.70
     Davidson diagonalization with overlap
     ethr =  1.00E-06,  avg # of iterations =  2.0

     Threshold (ethr) on eigenvalues was too large:
     Diagonalizing with lowered threshold

     Davidson diagonalization with overlap
     ethr =  1.06E-09,  avg # of iterations =  3.0

     negative rho (up, down):  1.202E-04 0.000E+00

     add environment contribution to local potential
     Polarization accuracy = 3.5E-12, # of iterations =  42

     total cpu time spent up to now is     7899.6 secs

     total energy              =   -3437.72337040 Ry
     estimated scf accuracy    <       0.00000402 Ry
     electrostatic embedding   =      -0.06400247 Ry
     cavitation energy         =       0.02086871 Ry
     PV energy                 =      -0.08299781 Ry
     correction to one-el term =     184.27774556 Ry

     iteration #  2     ecut=    50.00 Ry     beta= 0.70
     Davidson diagonalization with overlap
     ethr =  1.09E-09,  avg # of iterations =  2.0

     negative rho (up, down):  1.200E-04 0.000E+00

     add environment contribution to local potential
     Polarization accuracy = 9.0E-12, # of iterations =  42

     total cpu time spent up to now is     8051.2 secs

     total energy              =   -3437.72337095 Ry
     estimated scf accuracy    <       0.00000320 Ry
     electrostatic embedding   =      -0.06400855 Ry
     cavitation energy         =       0.02086878 Ry
     PV energy                 =      -0.08299764 Ry
     correction to one-el term =     184.27635995 Ry

     iteration #  3     ecut=    50.00 Ry     beta= 0.70
     Davidson diagonalization with overlap
     ethr =  8.70E-10,  avg # of iterations =  1.0

     negative rho (up, down):  1.195E-04 0.000E+00

     add environment contribution to local potential
     Polarization accuracy = 3.4E-12, # of iterations =  42

     total cpu time spent up to now is     8192.8 secs

     total energy              =   -3437.72337118 Ry
     estimated scf accuracy    <       0.00000104 Ry
     electrostatic embedding   =      -0.06401166 Ry
     cavitation energy         =       0.02086874 Ry
     PV energy                 =      -0.08299760 Ry
     correction to one-el term =     184.27564900 Ry

     iteration #  4     ecut=    50.00 Ry     beta= 0.70
     Davidson diagonalization with overlap
     ethr =  2.82E-10,  avg # of iterations =  1.0

     negative rho (up, down):  1.191E-04 0.000E+00

     add environment contribution to local potential
     Polarization accuracy = 3.4E-12, # of iterations =  42

     total cpu time spent up to now is     8355.5 secs

     total energy              =   -3437.72337128 Ry
     estimated scf accuracy    <       0.00000014 Ry
     electrostatic embedding   =      -0.06401578 Ry
     cavitation energy         =       0.02086870 Ry
     PV energy                 =      -0.08299755 Ry
     correction to one-el term =     184.27447816 Ry

     iteration #  5     ecut=    50.00 Ry     beta= 0.70
     Davidson diagonalization with overlap
     ethr =  3.91E-11,  avg # of iterations =  2.0

     negative rho (up, down):  1.190E-04 0.000E+00

     add environment contribution to local potential
     Polarization accuracy = 3.9E-12, # of iterations =  42

     total cpu time spent up to now is     8515.3 secs

     total energy              =   -3437.72337134 Ry
     estimated scf accuracy    <       0.00000007 Ry
     electrostatic embedding   =      -0.06402002 Ry
     cavitation energy         =       0.02086869 Ry
     PV energy                 =      -0.08299751 Ry
     correction to one-el term =     184.27317632 Ry

     iteration #  6     ecut=    50.00 Ry     beta= 0.70
     Davidson diagonalization with overlap
     ethr =  1.99E-11,  avg # of iterations =  1.0

     negative rho (up, down):  1.188E-04 0.000E+00

     add environment contribution to local potential
     Polarization accuracy = 3.4E-12, # of iterations =  42

     total cpu time spent up to now is     8680.3 secs

     total energy              =   -3437.72337135 Ry
     estimated scf accuracy    <       0.00000001 Ry
     electrostatic embedding   =      -0.06402101 Ry
     cavitation energy         =       0.02086870 Ry
     PV energy                 =      -0.08299749 Ry
     correction to one-el term =     184.27279146 Ry

     iteration #  7     ecut=    50.00 Ry     beta= 0.70
     Davidson diagonalization with overlap
     ethr =  2.99E-12,  avg # of iterations =  2.0

     negative rho (up, down):  1.188E-04 0.000E+00

     add environment contribution to local potential
     Polarization accuracy = 3.6E-12, # of iterations =  42

     total cpu time spent up to now is     8877.4 secs

     total energy              =   -3437.72337134 Ry
     estimated scf accuracy    <          5.8E-09 Ry
     electrostatic embedding   =      -0.06402265 Ry
     cavitation energy         =       0.02086874 Ry
     PV energy                 =      -0.08299743 Ry
     correction to one-el term =     184.27210655 Ry

     iteration #  8     ecut=    50.00 Ry     beta= 0.70
     Davidson diagonalization with overlap
     ethr =  1.57E-12,  avg # of iterations =  2.0

     negative rho (up, down):  1.188E-04 0.000E+00

     add environment contribution to local potential
     Polarization accuracy = 3.9E-12, # of iterations =  42

     total cpu time spent up to now is     9026.7 secs

     total energy              =   -3437.72337134 Ry
     estimated scf accuracy    <          2.5E-09 Ry
     electrostatic embedding   =      -0.06402326 Ry
     cavitation energy         =       0.02086877 Ry
     PV energy                 =      -0.08299738 Ry
     correction to one-el term =     184.27186878 Ry

     iteration #  9     ecut=    50.00 Ry     beta= 0.70
     Davidson diagonalization with overlap
     ethr =  6.66E-13,  avg # of iterations =  2.0

     negative rho (up, down):  1.194E-04 0.000E+00

     the potential shift due to the Gaussian-smeared nuclei is    -1.3368 ev

     total cpu time spent up to now is     9204.5 secs

     End of self-consistent calculation

          k = 0.2500 0.2666 0.0000 ( 35123 PWs)   bands (ev):

   -76.8115 -76.8029 -76.7982 -76.7896 -76.6734 -76.6597 -76.6530 -76.6529
   -76.6393 -76.5998 -76.5655 -76.5573 -47.0705 -47.0600 -47.0572 -47.0467
   -46.9006 -46.8993 -46.8937 -46.8869 -46.8683 -46.8477 -46.8371 -46.8300
   -46.8187 -46.8164 -46.7394 -46.7262 -46.7055 -46.6869 -46.6733 -46.6559
[...]
     atom   38 type  1   force =    -0.00004070    0.00000000    0.01156522
     atom   39 type  1   force =    -0.01702132    0.00000000    0.00392711
     atom   40 type  1   force =    -0.01757169   -0.00000000    0.00281068
     atom   41 type  3   force =     0.00000000    0.00000000    0.00000000
     atom   42 type  3   force =     0.00000000    0.00000000    0.00000000
     atom   43 type  3   force =     0.00000000    0.00000000    0.00000000
     atom   44 type  3   force =     0.00000000    0.00000000    0.00000000
     atom   45 type  3   force =     0.00000000    0.00000000    0.00000000
     atom   46 type  3   force =     0.00000000    0.00000000    0.00000000
     atom   47 type  3   force =     0.00000000    0.00000000    0.00000000
     atom   48 type  3   force =     0.00000000    0.00000000    0.00000000
     The Hubbard contrib.    to forces
     atom    1 type  1   force =     0.00000000    0.00000000    0.00000000
     atom    2 type  1   force =     0.00000000    0.00000000    0.00000000
     atom    3 type  1   force =     0.00000000    0.00000000    0.00000000
     atom    4 type  1   force =     0.00000000    0.00000000    0.00000000
     atom    5 type  2   force =     0.00000000    0.00000000    0.00000000
     atom    6 type  2   force =     0.00000000    0.00000000    0.00000000
     atom    7 type  1   force =     0.00000000    0.00000000    0.00000000
     atom    8 type  1   force =     0.00000000    0.00000000    0.00000000
     atom    9 type  2   force =     0.00000000    0.00000000    0.00000000
     atom   10 type  2   force =     0.00000000    0.00000000    0.00000000
     atom   11 type  1   force =     0.00000000    0.00000000    0.00000000
     atom   12 type  1   force =     0.00000000    0.00000000    0.00000000
     atom   13 type  1   force =     0.00000000    0.00000000    0.00000000
     atom   14 type  1   force =     0.00000000    0.00000000    0.00000000
     atom   15 type  1   force =     0.00000000    0.00000000    0.00000000
     atom   16 type  1   force =     0.00000000    0.00000000    0.00000000
     atom   17 type  2   force =     0.00000000    0.00000000    0.00000000
     atom   18 type  2   force =     0.00000000    0.00000000    0.00000000
     atom   19 type  1   force =     0.00000000    0.00000000    0.00000000
     atom   20 type  1   force =     0.00000000    0.00000000    0.00000000
     atom   21 type  2   force =     0.00000000    0.00000000    0.00000000
     atom   22 type  2   force =     0.00000000    0.00000000    0.00000000
     atom   23 type  1   force =     0.00000000    0.00000000    0.00000000
     atom   24 type  1   force =     0.00000000    0.00000000    0.00000000
     atom   25 type  1   force =     0.00000000    0.00000000    0.00000000
     atom   26 type  1   force =     0.00000000    0.00000000    0.00000000
     atom   27 type  1   force =     0.00000000    0.00000000    0.00000000
     atom   28 type  1   force =     0.00000000    0.00000000    0.00000000
     atom   29 type  2   force =     0.00000000    0.00000000    0.00000000
     atom   30 type  2   force =     0.00000000    0.00000000    0.00000000
     atom   31 type  1   force =     0.00000000    0.00000000    0.00000000
     atom   32 type  1   force =     0.00000000    0.00000000    0.00000000
     atom   33 type  2   force =     0.00000000    0.00000000    0.00000000
     atom   34 type  2   force =     0.00000000    0.00000000    0.00000000
     atom   35 type  1   force =     0.00000000    0.00000000    0.00000000
     atom   36 type  1   force =     0.00000000    0.00000000    0.00000000
     atom   37 type  1   force =     0.00000000    0.00000000    0.00000000
     atom   38 type  1   force =     0.00000000    0.00000000    0.00000000
     atom   39 type  1   force =     0.00000000    0.00000000    0.00000000
     atom   40 type  1   force =     0.00000000    0.00000000    0.00000000
     atom   41 type  3   force =     0.00000000    0.00000000    0.00000000
     atom   42 type  3   force =     0.00000000    0.00000000    0.00000000
     atom   43 type  3   force =     0.00000000    0.00000000    0.00000000
     atom   44 type  3   force =     0.00000000    0.00000000    0.00000000
     atom   45 type  3   force =     0.00000000    0.00000000    0.00000000
     atom   46 type  3   force =     0.00000000    0.00000000    0.00000000
     atom   47 type  3   force =     0.00000000    0.00000000    0.00000000
     atom   48 type  3   force =     0.00000000    0.00000000    0.00000000
     The SCF correction term to forces
     atom    1 type  1   force =     0.00000119    0.00000000   -0.00000207
     atom    2 type  1   force =    -0.00000188    0.00000000   -0.00000137
     atom    3 type  1   force =    -0.00000030    0.00000000   -0.00000099
     atom    4 type  1   force =     0.00000041   -0.00000000   -0.00000144
     atom    5 type  2   force =     0.00000142    0.00000000   -0.00000293
     atom    6 type  2   force =    -0.00000120   -0.00000000   -0.00000325
     atom    7 type  1   force =    -0.00000005    0.00000040   -0.00000089
     atom    8 type  1   force =    -0.00000001   -0.00000045   -0.00000086
     atom    9 type  2   force =     0.00000083    0.00000000   -0.00000313
     atom   10 type  2   force =    -0.00000081    0.00000000   -0.00000218
     atom   11 type  1   force =    -0.00000005   -0.00000040   -0.00000089
     atom   12 type  1   force =    -0.00000001    0.00000045   -0.00000086
     atom   13 type  1   force =    -0.00000030   -0.00000000   -0.00000037
     atom   14 type  1   force =     0.00000034   -0.00000000   -0.00000135
     atom   15 type  1   force =     0.00000076    0.00000000   -0.00000019
     atom   16 type  1   force =    -0.00000096    0.00000000   -0.00000056
     atom   17 type  2   force =     0.00000035   -0.00000000    0.00000003
     atom   18 type  2   force =    -0.00000056   -0.00000000    0.00000004
     atom   19 type  1   force =    -0.00000032    0.00000087    0.00000001
     atom   20 type  1   force =     0.00000067   -0.00000013    0.00000001
     atom   21 type  2   force =    -0.00000072    0.00000000    0.00000003
     atom   22 type  2   force =     0.00000097    0.00000000    0.00000003
     atom   23 type  1   force =    -0.00000032   -0.00000087    0.00000001
     atom   24 type  1   force =     0.00000067    0.00000013    0.00000001
     atom   25 type  1   force =     0.00000076    0.00000000    0.00000021
     atom   26 type  1   force =    -0.00000096    0.00000000    0.00000058
     atom   27 type  1   force =    -0.00000030   -0.00000000    0.00000039
     atom   28 type  1   force =     0.00000034   -0.00000000    0.00000137
     atom   29 type  2   force =     0.00000143   -0.00000000    0.00000295
     atom   30 type  2   force =    -0.00000120   -0.00000000    0.00000327
     atom   31 type  1   force =    -0.00000005    0.00000040    0.00000090
     atom   32 type  1   force =    -0.00000001   -0.00000046    0.00000087
     atom   33 type  2   force =     0.00000082    0.00000000    0.00000315
     atom   34 type  2   force =    -0.00000081    0.00000000    0.00000220
     atom   35 type  1   force =    -0.00000005   -0.00000040    0.00000090
     atom   36 type  1   force =    -0.00000001    0.00000046    0.00000087
     atom   37 type  1   force =    -0.00000030   -0.00000000    0.00000098
     atom   38 type  1   force =     0.00000041   -0.00000000    0.00000143
     atom   39 type  1   force =     0.00000119    0.00000000    0.00000206
     atom   40 type  1   force =    -0.00000188    0.00000000    0.00000136
     atom   41 type  3   force =    -0.00000003   -0.00000000   -0.00000025
     atom   42 type  3   force =    -0.00000003   -0.00000000    0.00000025
     atom   43 type  3   force =     0.00000003   -0.00000000   -0.00000028
     atom   44 type  3   force =     0.00000003   -0.00000000    0.00000028
     atom   45 type  3   force =     0.00000002    0.00000011   -0.00000027
     atom   46 type  3   force =     0.00000002    0.00000011    0.00000026
     atom   47 type  3   force =     0.00000002   -0.00000011   -0.00000027
     atom   48 type  3   force =     0.00000002   -0.00000011    0.00000026

     Total force =     0.000583     Total SCF correction =     0.000011
     Energy error            =      8.0E-07 Ry
     Gradient error          =      1.7E-04 Ry/Bohr

     number of scf cycles    =  27
     number of bfgs steps    =  26

     energy             old  =   -3437.7234850787 Ry
     energy             new  =   -3437.7234858797 Ry

     CASE: energy            _new < energy            _old

     new trust radius        =       0.0014501419 bohr
     new conv_thr            =            1.0E-11 Ry


ATOMIC_POSITIONS (crystal)
O             0.0017409499        0.5000000000        0.2668712912
O             0.4889501341        0.5000000000        0.2672812312
O            -0.0031360070        0.0000000000        0.2895608780
O             0.4984253082        0.0000000000        0.3069049941
Ru            0.2603119822        0.0000000000        0.3575216463
Ru            0.7369919987        0.0000000000        0.3573883063
O             0.2479122320        0.3118399212        0.3569734799
O             0.7503990199        0.3120861281        0.3560962961
Ru           -0.0005082135        0.5000000000        0.3582624334
Ru            0.4990443019        0.5000000000        0.3559468844
O             0.2479122320        0.6881600788        0.3569734799
O             0.7503990199        0.6879138719        0.3560962961
O            -0.0015285546        0.0000000000        0.4107063837
O             0.4987852132        0.0000000000        0.4117193948
O            -0.0006870256        0.5000000000        0.4458730831
O             0.4997993563        0.5000000000        0.4441957892
Ru           -0.0014962001        0.0000000000        0.5000010000
Ru            0.4985141035        0.0000000000        0.5000010000
O             0.2475971355        0.1878905881        0.5000010000
O             0.7492762285        0.1878863805        0.5000010000
Ru            0.2508682536        0.5000000000        0.5000010000
Ru            0.7478069272        0.5000000000        0.5000010000
O             0.2475971355        0.8121104119        0.5000010000
O             0.7492762285        0.8121146195        0.5000010000
O            -0.0006870256        0.5000000000        0.5541279169
O             0.4997993563        0.5000000000        0.5558052108
O            -0.0015285546        0.0000000000        0.5892946163
O             0.4987852132        0.0000000000        0.5882816052
Ru            0.2603119822        0.0000000000        0.6424793537
Ru            0.7369919987        0.0000000000        0.6426126937
O             0.2479122320        0.3118399212        0.6430275201
O             0.7503990199        0.3120861281        0.6439047039
Ru           -0.0005082135        0.5000000000        0.6417385666
Ru            0.4990443019        0.5000000000        0.6440541156
O             0.2479122320        0.6881600788        0.6430275201
O             0.7503990199        0.6879138719        0.6439047039
O            -0.0031360070        0.0000000000        0.7104411220
O             0.4984253082        0.0000000000        0.6930970059
O             0.0017409499        0.5000000000        0.7331297088
O             0.4889501341        0.5000000000        0.7327197688
H             0.1469418678        0.5000000000        0.2544325078
H             0.1469418678        0.5000000000        0.7455674922
H             0.6297724499        0.5000000000        0.2514136955
H             0.6297724499        0.5000000000        0.7485863045
H            -0.0054880856        0.1325474269        0.2634599023
H            -0.0054880856        0.1325474269        0.7365400977
H            -0.0054880856        0.8674525731        0.2634599023
H            -0.0054880856        0.8674525731        0.7365400977



     Writing config-only to output data dir /storage/home/mgm6007/ixd4/Maria/Strain2_Files/RuO2-110-0-0124/RuO2-110-0-0124.save/
     NEW-OLD atomic charge density approx. for the potential

     Check: negative core charge=   -0.000001

     negative rho (up, down):  1.194E-04 0.000E+00

     add environment contribution to local potential
     Polarization accuracy = 8.9E-12, # of iterations =  41

     total cpu time spent up to now is   205534.5 secs

     per-process dynamical memory:   229.8 Mb

     Self-consistent Calculation

     iteration #  1     ecut=    50.00 Ry     beta= 0.70
     Davidson diagonalization with overlap
     ethr =  1.00E-06,  avg # of iterations =  2.0

     Threshold (ethr) on eigenvalues was too large:
     Diagonalizing with lowered threshold

     Davidson diagonalization with overlap
     ethr =  3.00E-10,  avg # of iterations =  4.0

     negative rho (up, down):  1.189E-04 0.000E+00

     add environment contribution to local potential
     Polarization accuracy = 7.9E-12, # of iterations =  40

     total cpu time spent up to now is   206899.6 secs

     total energy              =   -3437.72348707 Ry
     estimated scf accuracy    <       0.00000088 Ry
     electrostatic embedding   =      -0.06372165 Ry
     cavitation energy         =       0.02087269 Ry
     PV energy                 =      -0.08301390 Ry
     correction to one-el term =     184.25321624 Ry

     iteration #  2     ecut=    50.00 Ry     beta= 0.70
     Davidson diagonalization with overlap
     ethr =  2.39E-10,  avg # of iterations =  2.0

     negative rho (up, down):  1.185E-04 0.000E+00

     add environment contribution to local potential
     Polarization accuracy = 8.9E-12, # of iterations =  41

     total cpu time spent up to now is   207733.0 secs

     total energy              =   -3437.72348695 Ry
     estimated scf accuracy    <       0.00000040 Ry
     electrostatic embedding   =      -0.06371028 Ry
     cavitation energy         =       0.02087198 Ry
     PV energy                 =      -0.08301462 Ry
     correction to one-el term =     184.25460682 Ry

     iteration #  3     ecut=    50.00 Ry     beta= 0.70
     Davidson diagonalization with overlap
     ethr =  1.09E-10,  avg # of iterations =  1.0

     negative rho (up, down):  1.181E-04 0.000E+00

     add environment contribution to local potential
     Polarization accuracy = 8.8E-12, # of iterations =  41

     total cpu time spent up to now is   208794.6 secs

     total energy              =   -3437.72348690 Ry
     estimated scf accuracy    <       0.00000040 Ry
     electrostatic embedding   =      -0.06370416 Ry
     cavitation energy         =       0.02087167 Ry
     PV energy                 =      -0.08301489 Ry
     correction to one-el term =     184.25522360 Ry

     iteration #  4     ecut=    50.00 Ry     beta= 0.70
     Davidson diagonalization with overlap
     ethr =  1.08E-10,  avg # of iterations =  1.0

     negative rho (up, down):  1.180E-04 0.000E+00

     add environment contribution to local potential
     Polarization accuracy = 8.8E-12, # of iterations =  41

     total cpu time spent up to now is   209759.1 secs

     total energy              =   -3437.72348685 Ry
     estimated scf accuracy    <       0.00000002 Ry
     electrostatic embedding   =      -0.06369674 Ry
     cavitation energy         =       0.02087130 Ry
     PV energy                 =      -0.08301515 Ry
     correction to one-el term =     184.25595859 Ry

     iteration #  5     ecut=    50.00 Ry     beta= 0.70
     Davidson diagonalization with overlap
     ethr =  5.96E-12,  avg # of iterations =  2.0

     negative rho (up, down):  1.180E-04 0.000E+00

     add environment contribution to local potential
     Polarization accuracy = 9.9E-12, # of iterations =  41

     total cpu time spent up to now is   210773.9 secs

     total energy              =   -3437.72348684 Ry
     estimated scf accuracy    <          9.2E-09 Ry
     electrostatic embedding   =      -0.06369466 Ry
     cavitation energy         =       0.02087124 Ry
     PV energy                 =      -0.08301514 Ry
     correction to one-el term =     184.25615065 Ry

     iteration #  6     ecut=    50.00 Ry     beta= 0.70
     Davidson diagonalization with overlap
     ethr =  2.50E-12,  avg # of iterations =  1.0

     negative rho (up, down):  1.181E-04 0.000E+00

     add environment contribution to local potential
     Polarization accuracy = 9.2E-12, # of iterations =  41

     total cpu time spent up to now is   212280.3 secs

     total energy              =   -3437.72348683 Ry
     estimated scf accuracy    <          3.1E-09 Ry
     electrostatic embedding   =      -0.06369296 Ry
     cavitation energy         =       0.02087120 Ry
     PV energy                 =      -0.08301511 Ry
     correction to one-el term =     184.25632848 Ry

     iteration #  7     ecut=    50.00 Ry     beta= 0.70
     Davidson diagonalization with overlap
     ethr =  8.35E-13,  avg # of iterations =  2.0

     negative rho (up, down):  1.183E-04 0.000E+00

     add environment contribution to local potential
     Polarization accuracy = 9.0E-12, # of iterations =  41

     total cpu time spent up to now is   214074.3 secs

     total energy              =   -3437.72348682 Ry
     estimated scf accuracy    <          5.6E-10 Ry
     electrostatic embedding   =      -0.06368989 Ry
     cavitation energy         =       0.02087115 Ry
     PV energy                 =      -0.08301508 Ry
     correction to one-el term =     184.25664286 Ry

     iteration #  8     ecut=    50.00 Ry     beta= 0.70
     Davidson diagonalization with overlap
     ethr =  1.53E-13,  avg # of iterations =  5.0

     negative rho (up, down):  1.185E-04 0.000E+00

     add environment contribution to local potential
     Polarization accuracy = 9.1E-12, # of iterations =  41

     total cpu time spent up to now is   215287.8 secs

     total energy              =   -3437.72348681 Ry
     estimated scf accuracy    <          4.7E-10 Ry
     electrostatic embedding   =      -0.06368826 Ry
     cavitation energy         =       0.02087113 Ry
     PV energy                 =      -0.08301506 Ry
     correction to one-el term =     184.25684533 Ry

     iteration #  9     ecut=    50.00 Ry     beta= 0.70
     Davidson diagonalization with overlap
     ethr =  1.27E-13,  avg # of iterations =  2.0

     negative rho (up, down):  1.188E-04 0.000E+00

     add environment contribution to local potential
     Polarization accuracy = 9.3E-12, # of iterations =  41

     total cpu time spent up to now is   216996.2 secs

     total energy              =   -3437.72348680 Ry
     estimated scf accuracy    <          8.1E-11 Ry
     electrostatic embedding   =      -0.06368654 Ry
     cavitation energy         =       0.02087112 Ry
     PV energy                 =      -0.08301504 Ry
     correction to one-el term =     184.25707697 Ry

     iteration # 10     ecut=    50.00 Ry     beta= 0.70
     Davidson diagonalization with overlap
     ethr =  1.00E-13,  avg # of iterations =  2.0

     negative rho (up, down):  1.190E-04 0.000E+00

     add environment contribution to local potential
     Polarization accuracy = 9.1E-12, # of iterations =  41

     total cpu time spent up to now is   217638.7 secs

     total energy              =   -3437.72348680 Ry
     estimated scf accuracy    <          3.2E-11 Ry
     electrostatic embedding   =      -0.06368560 Ry
     cavitation energy         =       0.02087112 Ry
     PV energy                 =      -0.08301503 Ry
     correction to one-el term =     184.25722028 Ry

     iteration # 11     ecut=    50.00 Ry     beta= 0.70
     Davidson diagonalization with overlap
     ethr =  1.00E-13,  avg # of iterations =  2.0

     negative rho (up, down):  1.191E-04 0.000E+00

     add environment contribution to local potential
     Polarization accuracy = 9.1E-12, # of iterations =  41
