
     Program PWSCF v.7.2 starts on 18Jul2023 at 16: 6:41 
        Git branch: heads/qe-7.2
        Last git commit: b4c5e8deeb7d1863e7553a87b45f8d22c21926a5
        Last git commit date: Mon Mar 27 16:12:09 2023 +0000
        Last git commit subject: Merge branch 'merge_fix_hubbard' into 'develop'

     This program is part of the open-source Quantum ESPRESSO suite
     for quantum simulation of materials; please cite
         "P. Giannozzi et al., J. Phys.:Condens. Matter 21 395502 (2009);
         "P. Giannozzi et al., J. Phys.:Condens. Matter 29 465901 (2017);
         "P. Giannozzi et al., J. Chem. Phys. 152 154105 (2020);
          URL http://www.quantum-espresso.org", 
     in publications or presentations arising from this work. More details at
     http://www.quantum-espresso.org/quote

     Parallel version (MPI), running on    20 processors

     MPI processes distributed on     1 nodes
     107479 MiB available memory on the printing compute node when the environment starts
 
     Reading input from RuO2-110-0-02.in

     Current dimensions of program PWSCF are:
     Max number of different atomic species (ntypx) = 10
     Max number of k-points (npk) =  40000
     Max angular momentum in pseudopotentials (lmaxx) =  4
 
     Reading input from environ.in:
     * Environ restarting
     * setting up water environment
     * using electronic solvent mode
     * setting boundary derivatives method to SCCS default
     

     File /storage/home/mgm6007/ixd4/Maria/Strain1_Files/RuO2-110-0-02/RuO2-110-0-02.update deleted, as requested

     File /storage/home/mgm6007/ixd4/Maria/Strain1_Files/RuO2-110-0-02/RuO2-110-0-02.bfgs deleted, as requested
     file O.pbe-n-kjpaw_psl.0.1.UPF: wavefunction(s)  2P renormalized
     Message from routine setup:
     using ibrav=0 with symmetry is DISCOURAGED, use correct ibrav instead
 
     R & G space division:  proc/nbgrp/npool/nimage =      20
     Subspace diagonalization in iterative solution of the eigenvalue problem:
     one sub-group per band group will be used
     scalapack distributed-memory algorithm (size of sub-group:  2*  2 procs)

 
     Parallelization info
     --------------------
     sticks:   dense  smooth     PW     G-vecs:    dense   smooth      PW
     Min         276     110     29                54830    13868    1873
     Max         277     111     30                54841    13883    1882
     Sum        5527    2209    585              1096679   277485   37533
 
     Using Slab Decomposition
 


     bravais-lattice index     =            0
     lattice parameter (alat)  =      12.3893  a.u.
     unit-cell volume          =    5808.5831 (a.u.)^3
     number of atoms/cell      =           44
     number of atomic types    =            3
     number of electrons       =       364.00
     number of Kohn-Sham states=          218
     kinetic-energy cutoff     =      50.0000  Ry
     charge density cutoff     =     500.0000  Ry
     scf convergence threshold =      1.0E-09
     mixing beta               =       0.7000
     number of iterations used =            8  local-TF  mixing
     energy convergence thresh.=      1.0E-04
     force convergence thresh. =      1.0E-04
     Exchange-correlation= PBE
                           (   1   4   3   4   0   0   0)
     nstep                     =          200


     ================================================================================
 
                                  Environ Setup Summary

     ================================================================================
 
     Please cite

          O. Andreussi, I. Dabo and N. Marzari, J. Chem. Phys. 136, 064102 (2012)

     in publications or presentations arising from this work.

     ================================================================================
 
     Parameters
     ==========

     compensation onset threshold      =               0.1000E+00
     static permittivity               =                    78.30
     surface tension in input (dyn/cm) =                    47.90
     surface tension in internal units =               0.6153E-04
     external pressure in input (GPa)  =                    -0.36
     external pressure in inter. units =              -0.2447E-04

     Solvent Boundary
     ================

     solvent mode                      =               electronic
     derivatives method                =                    chain
     numerical core for derivatives    =                      fft
     switching function adopted        =                     SCCS
     density limit for vacuum region   =               0.5000E-02
     density limit for bulk solvent    =               0.1000E-03

     Electrostatic Setup
     ===================

     electrostatic problem to solve    =              generalized
     numerical solver adopted          =                       cg
     type of auxiliary density adopted =                     none
     numerical core for poisson        =                      fft
     type of pbc corrections           =                parabolic
     numerical core for corrections    =                      1da

     ================================================================================
 

     celldm(1)=  12.389316  celldm(2)=   0.000000  celldm(3)=   0.000000
     celldm(4)=   0.000000  celldm(5)=   0.000000  celldm(6)=   0.000000

     crystal axes: (cart. coord. in units of alat)
               a(1) = (   1.000000   0.000000   0.000000 )  
               a(2) = (   0.000000   0.904766   0.000000 )  
               a(3) = (   0.000000   0.000000   3.375918 )  

     reciprocal axes: (cart. coord. in units 2 pi/alat)
               b(1) = (  1.000000  0.000000  0.000000 )  
               b(2) = (  0.000000  1.105258  0.000000 )  
               b(3) = (  0.000000  0.000000  0.296216 )  


     PseudoPot. # 1 for O  read from file:
     /gpfs/group/ixd4/default/Simon/pseudopotentials/materialscloud/SSSP_1.3.0_PBE_efficiency/O.pbe-n-kjpaw_psl.0.1.UPF
     MD5 check sum: 0234752ac141de4415c5fc33072bef88
     Pseudo is Projector augmented-wave + core cor, Zval =  6.0
     Generated using "atomic" code by A. Dal Corso  v.5.0.99 svn rev. 10869
     Shape of augmentation charge: BESSEL
     Using radial grid of 1095 points,  4 beta functions with: 
                l(1) =   0
                l(2) =   0
                l(3) =   1
                l(4) =   1
     Q(r) pseudized with 0 coefficients 


     PseudoPot. # 2 for Ru read from file:
     /gpfs/group/ixd4/default/Simon/pseudopotentials/materialscloud/SSSP_1.3.0_PBE_efficiency/Ru_ONCV_PBE-1.0.oncvpsp.upf
     MD5 check sum: be037bb81c227cfb9b1461a9f099f4bd
     Pseudo is Norm-conserving, Zval = 16.0
     Generated using ONCVPSP code by D. R. Hamann
     Using radial grid of 1458 points,  6 beta functions with: 
                l(1) =   0
                l(2) =   0
                l(3) =   1
                l(4) =   1
                l(5) =   2
                l(6) =   2

     PseudoPot. # 3 for H  read from file:
     /gpfs/group/ixd4/default/Simon/pseudopotentials/materialscloud/SSSP_1.3.0_PBE_efficiency/H.pbe-rrkjus_psl.1.0.0.UPF
     MD5 check sum: f52b6d4d1c606e5624b1dc7b2218f220
     Pseudo is Ultrasoft, Zval =  1.0
     Generated using "atomic" code by A. Dal Corso  v.5.1
     Using radial grid of  929 points,  2 beta functions with: 
                l(1) =   0
                l(2) =   0
     Q(r) pseudized with 0 coefficients 


     atomic species   valence    mass     pseudopotential
        O              6.00    15.99940     O ( 1.00)
        Ru            16.00   101.07000     Ru( 1.00)
        H              1.00     1.00794     H ( 1.00)

      2 Sym. Ops. (no inversion) found



   Cartesian axes

     site n.     atom                  positions (alat units)
         1           O   tau(   1) = (  -0.0052426   0.4075207   0.9145393  )
         2           O   tau(   2) = (   0.4971613   0.4435552   0.9243363  )
         3           O   tau(   3) = (   0.0008712   0.0066463   1.0120170  )
         4           O   tau(   4) = (   0.5003544  -0.0006797   1.0392039  )
         5           Ru  tau(   5) = (   0.2581750  -0.0002632   1.2028916  )
         6           Ru  tau(   6) = (   0.7429298  -0.0001828   1.2024589  )
         7           O   tau(   7) = (   0.2501838   0.2826740   1.2241406  )
         8           O   tau(   8) = (   0.7517044   0.2820658   1.2176695  )
         9           Ru  tau(   9) = (  -0.0003397   0.4510661   1.2103377  )
        10           Ru  tau(  10) = (   0.5006431   0.4509782   1.1859216  )
        11           O   tau(  11) = (   0.2436045   0.6219078   1.2002256  )
        12           O   tau(  12) = (   0.7564992   0.6209566   1.2040273  )
        13           O   tau(  13) = (   0.0001011  -0.0019376   1.3891053  )
        14           O   tau(  14) = (   0.5005945  -0.0039682   1.3901534  )
        15           O   tau(  15) = (   0.0045322   0.4547613   1.5083593  )
        16           O   tau(  16) = (   0.5035787   0.4560065   1.4982619  )
        17           Ru  tau(  17) = (   0.0001922   0.0000570   1.6879622  )
        18           Ru  tau(  18) = (   0.5003510   0.0009432   1.6879622  )
        19           O   tau(  19) = (   0.2493156   0.1693619   1.6879622  )
        20           O   tau(  20) = (   0.7494670   0.1693036   1.6879622  )
        21           Ru  tau(  21) = (   0.2556839   0.4533542   1.6879622  )
        22           Ru  tau(  22) = (   0.7514593   0.4535211   1.6879622  )
        23           O   tau(  23) = (   0.2499185   0.7373586   1.6879622  )
        24           O   tau(  24) = (   0.7494954   0.7371177   1.6879622  )
        25           O   tau(  25) = (   0.0045322   0.4547613   1.8675616  )
        26           O   tau(  26) = (   0.5035787   0.4560065   1.8776590  )
        27           O   tau(  27) = (   0.0001011  -0.0019376   1.9868157  )
        28           O   tau(  28) = (   0.5005945  -0.0039682   1.9857675  )
        29           Ru  tau(  29) = (   0.2581750  -0.0002632   2.1730293  )
        30           Ru  tau(  30) = (   0.7429298  -0.0001828   2.1734620  )
        31           O   tau(  31) = (   0.2501838   0.2826740   2.1517803  )
        32           O   tau(  32) = (   0.7517044   0.2820658   2.1582514  )
        33           Ru  tau(  33) = (  -0.0003397   0.4510661   2.1655832  )
        34           Ru  tau(  34) = (   0.5006431   0.4509782   2.1899993  )
        35           O   tau(  35) = (   0.2436045   0.6219078   2.1756953  )
        36           O   tau(  36) = (   0.7564992   0.6209566   2.1718936  )
        37           O   tau(  37) = (   0.0008712   0.0066463   2.3639073  )
        38           O   tau(  38) = (   0.5003544  -0.0006797   2.3367204  )
        39           O   tau(  39) = (  -0.0052426   0.4075207   2.4613816  )
        40           O   tau(  40) = (   0.4971613   0.4435552   2.4515847  )
        41           H   tau(  41) = (   0.1086664   0.4695177   0.8406483  )
        42           H   tau(  42) = (   0.1086664   0.4695177   2.5352693  )
        43           H   tau(  43) = (   0.0006761   0.1355705   0.9300492  )
        44           H   tau(  44) = (   0.0006761   0.1355705   2.4458684  )

     number of k points=     2  Marzari-Vanderbilt smearing, width (Ry)=  0.0300
                       cart. coord. in units 2pi/alat
        k(    1) = (   0.2500000   0.2763144   0.0000000), wk =   1.0000000
        k(    2) = (  -0.2500000   0.2763144   0.0000000), wk =   1.0000000

     Dense  grid:  1096679 G-vectors     FFT dimensions: (  90,  80, 300)

     Smooth grid:   277485 G-vectors     FFT dimensions: (  60,  54, 192)

     Estimated max dynamical RAM per process >     179.53 MB

     Estimated total dynamical RAM >       3.51 GB

     Check: negative core charge=   -0.000001

     Initial potential from superposition of free atoms

     starting charge     363.9933, renormalised to     364.0000

     add environment contribution to local potential
     Polarization accuracy = 4.9E-12, # of iterations =  24

     negative rho (up, down):  3.395E-05 0.000E+00
     Starting wfcs are  236 randomized atomic wfcs
     Checking if some PAW data can be deallocated... 

     total cpu time spent up to now is     2744.7 secs

     per-process dynamical memory:   150.9 Mb

     Self-consistent Calculation

     iteration #  1     ecut=    50.00 Ry     beta= 0.70
     Davidson diagonalization with overlap
     ethr =  1.00E-02,  avg # of iterations =  2.0

     total cpu time spent up to now is     3493.2 secs

     total energy              =   -3430.05297651 Ry
     estimated scf accuracy    <      10.08273859 Ry
     electrostatic embedding   =      -0.00170325 Ry
     cavitation energy         =       0.01946813 Ry
     PV energy                 =      -0.08241782 Ry
     correction to one-el term =     218.58902650 Ry

     iteration #  2     ecut=    50.00 Ry     beta= 0.70
     Davidson diagonalization with overlap
     ethr =  2.77E-03,  avg # of iterations =  2.0

     total cpu time spent up to now is     4084.0 secs

     total energy              =   -3432.29717246 Ry
     estimated scf accuracy    <       2.13080977 Ry
     electrostatic embedding   =      -0.00233748 Ry
     cavitation energy         =       0.01957993 Ry
     PV energy                 =      -0.08240027 Ry
     correction to one-el term =     218.59066147 Ry

     iteration #  3     ecut=    50.00 Ry     beta= 0.70
     Davidson diagonalization with overlap
     ethr =  5.85E-04,  avg # of iterations =  1.0

     total cpu time spent up to now is     4749.3 secs

     total energy              =   -3432.52720087 Ry
     estimated scf accuracy    <       0.43170986 Ry
     electrostatic embedding   =      -0.00260309 Ry
     cavitation energy         =       0.01964032 Ry
     PV energy                 =      -0.08239644 Ry
     correction to one-el term =     218.59134423 Ry

     iteration #  4     ecut=    50.00 Ry     beta= 0.70
     Davidson diagonalization with overlap
     ethr =  1.19E-04,  avg # of iterations =  2.0

     total cpu time spent up to now is     5392.8 secs

     total energy              =   -3432.56622397 Ry
     estimated scf accuracy    <       0.26395976 Ry
     electrostatic embedding   =      -0.00262839 Ry
     cavitation energy         =       0.01980322 Ry
     PV energy                 =      -0.08190508 Ry
     correction to one-el term =     218.59113574 Ry

     iteration #  5     ecut=    50.00 Ry     beta= 0.70
     Davidson diagonalization with overlap
     ethr =  7.25E-05,  avg # of iterations =  1.0

     add environment contribution to local potential
     Polarization accuracy = 6.3E-12, # of iterations =  37

     total cpu time spent up to now is     6063.4 secs

     total energy              =   -3432.56756926 Ry
     estimated scf accuracy    <       0.06560265 Ry
     electrostatic embedding   =      -0.00268735 Ry
     cavitation energy         =       0.02003775 Ry
     PV energy                 =      -0.08137683 Ry
     correction to one-el term =     218.59103474 Ry

     iteration #  6     ecut=    50.00 Ry     beta= 0.70
     Davidson diagonalization with overlap
     ethr =  1.80E-05,  avg # of iterations =  7.0

     add environment contribution to local potential
     Polarization accuracy = 7.5E-12, # of iterations =  38

     total cpu time spent up to now is     6622.3 secs

     total energy              =   -3432.58668838 Ry
     estimated scf accuracy    <       0.03594890 Ry
     electrostatic embedding   =      -0.02228608 Ry
     cavitation energy         =       0.02042255 Ry
     PV energy                 =      -0.08056709 Ry
     correction to one-el term =     198.33191689 Ry

     iteration #  7     ecut=    50.00 Ry     beta= 0.70
     Davidson diagonalization with overlap
     ethr =  9.88E-06,  avg # of iterations = 12.0

     add environment contribution to local potential
     Polarization accuracy = 6.5E-12, # of iterations =  39

     total cpu time spent up to now is     7209.1 secs

     total energy              =   -3432.58735186 Ry
     estimated scf accuracy    <       0.01933603 Ry
     electrostatic embedding   =      -0.02504904 Ry
     cavitation energy         =       0.02060437 Ry
     PV energy                 =      -0.08022395 Ry
     correction to one-el term =     196.88783645 Ry

     iteration #  8     ecut=    50.00 Ry     beta= 0.70
     Davidson diagonalization with overlap
     ethr =  5.31E-06,  avg # of iterations =  1.0

     add environment contribution to local potential
     Polarization accuracy = 9.9E-12, # of iterations =  45

     total cpu time spent up to now is     7859.5 secs

     total energy              =   -3432.58488389 Ry
     estimated scf accuracy    <       0.01784632 Ry
     electrostatic embedding   =      -0.02761384 Ry
     cavitation energy         =       0.02075615 Ry
     PV energy                 =      -0.07993817 Ry
     correction to one-el term =     195.80058854 Ry

     iteration #  9     ecut=    50.00 Ry     beta= 0.70
     Davidson diagonalization with overlap
     ethr =  4.90E-06,  avg # of iterations =  2.0

     add environment contribution to local potential
     Polarization accuracy = 5.8E-12, # of iterations =  48

     total cpu time spent up to now is     8465.4 secs

     total energy              =   -3432.58631795 Ry
     estimated scf accuracy    <       0.02487437 Ry
     electrostatic embedding   =      -0.03662488 Ry
     cavitation energy         =       0.02118938 Ry
     PV energy                 =      -0.07918919 Ry
     correction to one-el term =     193.34166325 Ry

     iteration # 10     ecut=    50.00 Ry     beta= 0.70
     Davidson diagonalization with overlap
     ethr =  4.90E-06,  avg # of iterations =  1.0

     add environment contribution to local potential
     Polarization accuracy = 3.7E-12, # of iterations =  48

     total cpu time spent up to now is     9130.3 secs

     total energy              =   -3432.58664963 Ry
     estimated scf accuracy    <       0.01577142 Ry
     electrostatic embedding   =      -0.04079060 Ry
     cavitation energy         =       0.02127371 Ry
     PV energy                 =      -0.07897248 Ry
     correction to one-el term =     192.91651910 Ry

     iteration # 11     ecut=    50.00 Ry     beta= 0.70
     Davidson diagonalization with overlap
     ethr =  4.33E-06,  avg # of iterations =  1.0

     negative rho (up, down):  4.133E-06 0.000E+00

     add environment contribution to local potential
     Polarization accuracy = 8.1E-12, # of iterations =  47

     total cpu time spent up to now is     9758.6 secs

     total energy              =   -3432.58696375 Ry
     estimated scf accuracy    <       0.00571210 Ry
     electrostatic embedding   =      -0.04081168 Ry
     cavitation energy         =       0.02118911 Ry
     PV energy                 =      -0.07900255 Ry
     correction to one-el term =     193.44216860 Ry

     iteration # 12     ecut=    50.00 Ry     beta= 0.70
     Davidson diagonalization with overlap
     ethr =  1.57E-06,  avg # of iterations =  1.0

     negative rho (up, down):  1.518E-05 0.000E+00

     add environment contribution to local potential
     Polarization accuracy = 6.4E-12, # of iterations =  46

     total cpu time spent up to now is    10406.7 secs

     total energy              =   -3432.58734268 Ry
     estimated scf accuracy    <       0.00408985 Ry
     electrostatic embedding   =      -0.04086193 Ry
     cavitation energy         =       0.02107971 Ry
     PV energy                 =      -0.07903779 Ry
     correction to one-el term =     194.32072373 Ry

     iteration # 13     ecut=    50.00 Ry     beta= 0.70
     Davidson diagonalization with overlap
     ethr =  1.12E-06,  avg # of iterations =  1.0

     negative rho (up, down):  4.650E-05 0.000E+00

     add environment contribution to local potential
     Polarization accuracy = 4.0E-12, # of iterations =  46

     total cpu time spent up to now is    10961.9 secs

     total energy              =   -3432.58775916 Ry
     estimated scf accuracy    <       0.00242484 Ry
     electrostatic embedding   =      -0.03952244 Ry
     cavitation energy         =       0.02095788 Ry
     PV energy                 =      -0.07913118 Ry
     correction to one-el term =     195.33586285 Ry

     iteration # 14     ecut=    50.00 Ry     beta= 0.70
     Davidson diagonalization with overlap
     ethr =  6.66E-07,  avg # of iterations =  1.0

     negative rho (up, down):  4.793E-05 0.000E+00

     add environment contribution to local potential
     Polarization accuracy = 6.8E-12, # of iterations =  44

     total cpu time spent up to now is    11924.9 secs

     total energy              =   -3432.58812305 Ry
     estimated scf accuracy    <       0.00072687 Ry
     electrostatic embedding   =      -0.03838294 Ry
     cavitation energy         =       0.02088065 Ry
     PV energy                 =      -0.07919062 Ry
     correction to one-el term =     196.15345828 Ry

     iteration # 15     ecut=    50.00 Ry     beta= 0.70
     Davidson diagonalization with overlap
     ethr =  2.00E-07,  avg # of iterations =  2.0

     negative rho (up, down):  9.475E-07 0.000E+00

     add environment contribution to local potential
     Polarization accuracy = 7.4E-12, # of iterations =  44

     total cpu time spent up to now is    12577.3 secs

     total energy              =   -3432.58839400 Ry
     estimated scf accuracy    <       0.00027118 Ry
     electrostatic embedding   =      -0.03592644 Ry
     cavitation energy         =       0.02079316 Ry
     PV energy                 =      -0.07928865 Ry
     correction to one-el term =     197.18664432 Ry

     iteration # 16     ecut=    50.00 Ry     beta= 0.70
     Davidson diagonalization with overlap
     ethr =  7.45E-08,  avg # of iterations =  2.0

     negative rho (up, down):  3.996E-06 0.000E+00

     add environment contribution to local potential
     Polarization accuracy = 9.3E-12, # of iterations =  45

     total cpu time spent up to now is    13042.6 secs

     total energy              =   -3432.58847941 Ry
     estimated scf accuracy    <       0.00009566 Ry
     electrostatic embedding   =      -0.03434517 Ry
     cavitation energy         =       0.02080414 Ry
     PV energy                 =      -0.07930672 Ry
     correction to one-el term =     197.46811547 Ry

     iteration # 17     ecut=    50.00 Ry     beta= 0.70
     Davidson diagonalization with overlap
     ethr =  2.63E-08,  avg # of iterations =  2.0

     negative rho (up, down):  2.482E-05 0.000E+00

     add environment contribution to local potential
     Polarization accuracy = 9.8E-12, # of iterations =  45

     total cpu time spent up to now is    13568.9 secs

     total energy              =   -3432.58850605 Ry
     estimated scf accuracy    <       0.00002368 Ry
     electrostatic embedding   =      -0.03396198 Ry
     cavitation energy         =       0.02082836 Ry
     PV energy                 =      -0.07928555 Ry
     correction to one-el term =     197.49438695 Ry

     iteration # 18     ecut=    50.00 Ry     beta= 0.70
     Davidson diagonalization with overlap
     ethr =  6.51E-09,  avg # of iterations =  2.0

     negative rho (up, down):  3.796E-04 0.000E+00

     add environment contribution to local potential
     Polarization accuracy = 3.6E-12, # of iterations =  45

     total cpu time spent up to now is    14075.8 secs

     total energy              =   -3432.58851418 Ry
     estimated scf accuracy    <       0.00002778 Ry
     electrostatic embedding   =      -0.03378603 Ry
     cavitation energy         =       0.02082459 Ry
     PV energy                 =      -0.07928413 Ry
     correction to one-el term =     197.56858393 Ry

     iteration # 19     ecut=    50.00 Ry     beta= 0.70
     Davidson diagonalization with overlap
     ethr =  6.51E-09,  avg # of iterations =  2.0

     negative rho (up, down):  5.241E-05 0.000E+00

     add environment contribution to local potential
     Polarization accuracy = 4.1E-12, # of iterations =  45

     total cpu time spent up to now is    14278.5 secs

     total energy              =   -3432.58852077 Ry
     estimated scf accuracy    <       0.00000633 Ry
     electrostatic embedding   =      -0.03340062 Ry
     cavitation energy         =       0.02083381 Ry
     PV energy                 =      -0.07927191 Ry
     correction to one-el term =     197.64725834 Ry

     iteration # 20     ecut=    50.00 Ry     beta= 0.70
     Davidson diagonalization with overlap
     ethr =  1.74E-09,  avg # of iterations =  2.0

     negative rho (up, down):  6.063E-05 0.000E+00

     add environment contribution to local potential
     Polarization accuracy = 4.0E-12, # of iterations =  45

     total cpu time spent up to now is    14414.4 secs

     total energy              =   -3432.58852223 Ry
     estimated scf accuracy    <       0.00000452 Ry
     electrostatic embedding   =      -0.03341160 Ry
     cavitation energy         =       0.02084030 Ry
     PV energy                 =      -0.07926151 Ry
     correction to one-el term =     197.60500119 Ry

     iteration # 21     ecut=    50.00 Ry     beta= 0.70
     Davidson diagonalization with overlap
     ethr =  1.24E-09,  avg # of iterations =  1.0

     negative rho (up, down):  1.080E-04 0.000E+00

     add environment contribution to local potential
     Polarization accuracy = 4.5E-12, # of iterations =  45

     total cpu time spent up to now is    14548.2 secs

     total energy              =   -3432.58852306 Ry
     estimated scf accuracy    <       0.00000140 Ry
     electrostatic embedding   =      -0.03338762 Ry
     cavitation energy         =       0.02084141 Ry
     PV energy                 =      -0.07925701 Ry
     correction to one-el term =     197.60829482 Ry

     iteration # 22     ecut=    50.00 Ry     beta= 0.70
     Davidson diagonalization with overlap
     ethr =  3.86E-10,  avg # of iterations =  2.0

     negative rho (up, down):  1.445E-04 0.000E+00

     add environment contribution to local potential
     Polarization accuracy = 3.8E-12, # of iterations =  46

     total cpu time spent up to now is    14695.3 secs

     total energy              =   -3432.58852357 Ry
     estimated scf accuracy    <       0.00000046 Ry
     electrostatic embedding   =      -0.03334720 Ry
     cavitation energy         =       0.02084046 Ry
     PV energy                 =      -0.07925650 Ry
     correction to one-el term =     197.62128352 Ry

     iteration # 23     ecut=    50.00 Ry     beta= 0.70
     Davidson diagonalization with overlap
     ethr =  1.27E-10,  avg # of iterations =  2.0

     negative rho (up, down):  1.457E-04 0.000E+00

     add environment contribution to local potential
     Polarization accuracy = 3.8E-12, # of iterations =  46

     total cpu time spent up to now is    14854.6 secs

     total energy              =   -3432.58852399 Ry
     estimated scf accuracy    <       0.00000038 Ry
     electrostatic embedding   =      -0.03331362 Ry
     cavitation energy         =       0.02083917 Ry
     PV energy                 =      -0.07925720 Ry
     correction to one-el term =     197.62964565 Ry

     iteration # 24     ecut=    50.00 Ry     beta= 0.70
     Davidson diagonalization with overlap
     ethr =  1.04E-10,  avg # of iterations =  1.0

     negative rho (up, down):  1.573E-04 0.000E+00

     add environment contribution to local potential
     Polarization accuracy = 4.0E-12, # of iterations =  45

     total cpu time spent up to now is    15415.8 secs

     total energy              =   -3432.58852423 Ry
     estimated scf accuracy    <       0.00000024 Ry
     electrostatic embedding   =      -0.03330605 Ry
     cavitation energy         =       0.02083873 Ry
     PV energy                 =      -0.07925735 Ry
     correction to one-el term =     197.62970081 Ry

     iteration # 25     ecut=    50.00 Ry     beta= 0.70
     Davidson diagonalization with overlap
     ethr =  6.67E-11,  avg # of iterations =  2.0

     negative rho (up, down):  1.688E-04 0.000E+00

     add environment contribution to local potential
     Polarization accuracy = 4.1E-12, # of iterations =  45

     total cpu time spent up to now is    15551.5 secs

     total energy              =   -3432.58852477 Ry
     estimated scf accuracy    <       0.00000013 Ry
     electrostatic embedding   =      -0.03328656 Ry
     cavitation energy         =       0.02083792 Ry
     PV energy                 =      -0.07925749 Ry
     correction to one-el term =     197.63180080 Ry

     iteration # 26     ecut=    50.00 Ry     beta= 0.70
     Davidson diagonalization with overlap
     ethr =  3.68E-11,  avg # of iterations =  2.0

     negative rho (up, down):  1.592E-04 0.000E+00

     add environment contribution to local potential
     Polarization accuracy = 4.1E-12, # of iterations =  46

     total cpu time spent up to now is    15688.7 secs

     total energy              =   -3432.58852532 Ry
     estimated scf accuracy    <       0.00000010 Ry
     electrostatic embedding   =      -0.03325966 Ry
     cavitation energy         =       0.02083770 Ry
     PV energy                 =      -0.07925838 Ry
     correction to one-el term =     197.63523690 Ry

     iteration # 27     ecut=    50.00 Ry     beta= 0.70
     Davidson diagonalization with overlap
     ethr =  2.75E-11,  avg # of iterations =  2.0

     negative rho (up, down):  1.511E-04 0.000E+00

     add environment contribution to local potential
     Polarization accuracy = 4.0E-12, # of iterations =  45

     total cpu time spent up to now is    15846.6 secs

     total energy              =   -3432.58852585 Ry
     estimated scf accuracy    <       0.00000009 Ry
     electrostatic embedding   =      -0.03325083 Ry
     cavitation energy         =       0.02083733 Ry
     PV energy                 =      -0.07925928 Ry
     correction to one-el term =     197.63486907 Ry

     iteration # 28     ecut=    50.00 Ry     beta= 0.70
     Davidson diagonalization with overlap
     ethr =  2.41E-11,  avg # of iterations =  2.0

     negative rho (up, down):  1.495E-04 0.000E+00

     add environment contribution to local potential
     Polarization accuracy = 3.9E-12, # of iterations =  45

     total cpu time spent up to now is    16009.7 secs

     total energy              =   -3432.58852666 Ry
     estimated scf accuracy    <       0.00000007 Ry
     electrostatic embedding   =      -0.03323133 Ry
     cavitation energy         =       0.02083759 Ry
     PV energy                 =      -0.07925955 Ry
     correction to one-el term =     197.63616243 Ry

     iteration # 29     ecut=    50.00 Ry     beta= 0.70
     Davidson diagonalization with overlap
     ethr =  1.88E-11,  avg # of iterations =  1.0

     negative rho (up, down):  1.513E-04 0.000E+00

     add environment contribution to local potential
     Polarization accuracy = 3.9E-12, # of iterations =  45

     total cpu time spent up to now is    16151.8 secs

     total energy              =   -3432.58852690 Ry
     estimated scf accuracy    <       0.00000007 Ry
     electrostatic embedding   =      -0.03323070 Ry
     cavitation energy         =       0.02083749 Ry
     PV energy                 =      -0.07925974 Ry
     correction to one-el term =     197.63632079 Ry

     iteration # 30     ecut=    50.00 Ry     beta= 0.70
     Davidson diagonalization with overlap
     ethr =  1.80E-11,  avg # of iterations =  1.0

     negative rho (up, down):  1.528E-04 0.000E+00

     add environment contribution to local potential
     Polarization accuracy = 8.5E-12, # of iterations =  45

     total cpu time spent up to now is    16278.0 secs

     total energy              =   -3432.58852719 Ry
     estimated scf accuracy    <       0.00000006 Ry
     electrostatic embedding   =      -0.03323015 Ry
     cavitation energy         =       0.02083754 Ry
     PV energy                 =      -0.07925953 Ry
     correction to one-el term =     197.63700839 Ry

     iteration # 31     ecut=    50.00 Ry     beta= 0.70
     Davidson diagonalization with overlap
     ethr =  1.71E-11,  avg # of iterations =  2.0

     negative rho (up, down):  1.520E-04 0.000E+00

     add environment contribution to local potential
     Polarization accuracy = 3.9E-12, # of iterations =  45

     total cpu time spent up to now is    16414.9 secs

     total energy              =   -3432.58852799 Ry
     estimated scf accuracy    <       0.00000006 Ry
     electrostatic embedding   =      -0.03322211 Ry
     cavitation energy         =       0.02083742 Ry
     PV energy                 =      -0.07925960 Ry
     correction to one-el term =     197.63809846 Ry

     iteration # 32     ecut=    50.00 Ry     beta= 0.70
     Davidson diagonalization with overlap
     ethr =  1.71E-11,  avg # of iterations =  2.0

     negative rho (up, down):  1.696E-04 0.000E+00

     add environment contribution to local potential
     Polarization accuracy = 9.1E-12, # of iterations =  45

     total cpu time spent up to now is    16546.7 secs

     total energy              =   -3432.58852995 Ry
     estimated scf accuracy    <       0.00000007 Ry
     electrostatic embedding   =      -0.03321869 Ry
     cavitation energy         =       0.02083745 Ry
     PV energy                 =      -0.07925967 Ry
     correction to one-el term =     197.63930577 Ry

     iteration # 33     ecut=    50.00 Ry     beta= 0.70
     Davidson diagonalization with overlap
     ethr =  1.71E-11,  avg # of iterations =  2.0

     negative rho (up, down):  1.804E-04 0.000E+00

     add environment contribution to local potential
     Polarization accuracy = 3.9E-12, # of iterations =  45

     total cpu time spent up to now is    16673.7 secs

     total energy              =   -3432.58853408 Ry
     estimated scf accuracy    <       0.00000005 Ry
     electrostatic embedding   =      -0.03321860 Ry
     cavitation energy         =       0.02083708 Ry
     PV energy                 =      -0.07925945 Ry
     correction to one-el term =     197.64171001 Ry

     iteration # 34     ecut=    50.00 Ry     beta= 0.70
     Davidson diagonalization with overlap
     ethr =  1.27E-11,  avg # of iterations =  5.0

     negative rho (up, down):  1.808E-04 0.000E+00

     add environment contribution to local potential
     Polarization accuracy = 7.3E-12, # of iterations =  45

     total cpu time spent up to now is    16828.3 secs

     total energy              =   -3432.58853920 Ry
     estimated scf accuracy    <       0.00000003 Ry
     electrostatic embedding   =      -0.03321431 Ry
     cavitation energy         =       0.02083680 Ry
     PV energy                 =      -0.07925961 Ry
     correction to one-el term =     197.64336656 Ry

     iteration # 35     ecut=    50.00 Ry     beta= 0.70
     Davidson diagonalization with overlap
     ethr =  8.77E-12,  avg # of iterations =  3.0

     negative rho (up, down):  1.768E-04 0.000E+00

     add environment contribution to local potential
     Polarization accuracy = 8.7E-12, # of iterations =  44

     total cpu time spent up to now is    16969.3 secs

     total energy              =   -3432.58854645 Ry
     estimated scf accuracy    <       0.00000002 Ry
     electrostatic embedding   =      -0.03322164 Ry
     cavitation energy         =       0.02083686 Ry
     PV energy                 =      -0.07925977 Ry
     correction to one-el term =     197.64181392 Ry

     iteration # 36     ecut=    50.00 Ry     beta= 0.70
     Davidson diagonalization with overlap
     ethr =  4.81E-12,  avg # of iterations =  2.0

     negative rho (up, down):  1.721E-04 0.000E+00

     add environment contribution to local potential
     Polarization accuracy = 5.9E-12, # of iterations =  43

     total cpu time spent up to now is    17133.9 secs

     total energy              =   -3432.58854863 Ry
     estimated scf accuracy    <          5.3E-09 Ry
     electrostatic embedding   =      -0.03322202 Ry
     cavitation energy         =       0.02083700 Ry
     PV energy                 =      -0.07925979 Ry
     correction to one-el term =     197.64110685 Ry

     iteration # 37     ecut=    50.00 Ry     beta= 0.70
     Davidson diagonalization with overlap
     ethr =  1.47E-12,  avg # of iterations =  5.0

     negative rho (up, down):  1.643E-04 0.000E+00

     add environment contribution to local potential
     Polarization accuracy = 6.9E-12, # of iterations =  44

     total cpu time spent up to now is    17270.7 secs

     total energy              =   -3432.58855047 Ry
     estimated scf accuracy    <          5.8E-09 Ry
     electrostatic embedding   =      -0.03322372 Ry
     cavitation energy         =       0.02083714 Ry
     PV energy                 =      -0.07925961 Ry
     correction to one-el term =     197.64052766 Ry

     iteration # 38     ecut=    50.00 Ry     beta= 0.70
     Davidson diagonalization with overlap
     ethr =  1.47E-12,  avg # of iterations =  2.0

     negative rho (up, down):  1.602E-04 0.000E+00

     add environment contribution to local potential
     Polarization accuracy = 7.2E-12, # of iterations =  44

     total cpu time spent up to now is    17415.5 secs

     total energy              =   -3432.58855163 Ry
     estimated scf accuracy    <          1.5E-09 Ry
     electrostatic embedding   =      -0.03322646 Ry
     cavitation energy         =       0.02083731 Ry
     PV energy                 =      -0.07925959 Ry
     correction to one-el term =     197.63910370 Ry

     iteration # 39     ecut=    50.00 Ry     beta= 0.70
     Davidson diagonalization with overlap
     ethr =  4.14E-13,  avg # of iterations =  2.0

     negative rho (up, down):  1.563E-04 0.000E+00

     the potential shift due to the Gaussian-smeared nuclei is    -1.3393 ev

     total cpu time spent up to now is    17554.3 secs

     End of self-consistent calculation

          k = 0.2500 0.2763 0.0000 ( 34692 PWs)   bands (ev):

   -78.8522 -78.8394 -78.3532 -78.3409 -78.3329 -78.3206 -78.1883 -78.1758
   -78.0180 -78.0127 -77.9390 -77.9250 -49.3623 -49.3496 -48.8003 -48.7876
   -48.6452 -48.6328 -48.6163 -48.6040 -48.4472 -48.4344 -48.3604 -48.3479
   -48.3438 -48.3316 -48.3249 -48.3107 -48.3075 -48.2950 -48.2595 -48.2473
   -48.2181 -48.1852 -48.1657 -48.1518 -48.1386 -48.1264 -48.1110 -48.0269
   -47.9249 -47.9124 -47.8629 -47.8317 -47.8116 -47.7784 -47.7375 -47.7243
   -24.7334 -24.6296 -24.4755 -24.1713 -24.1309 -24.0146 -23.9240 -23.8752
   -23.6634 -23.5784 -23.4734 -23.4629 -23.4363 -23.3473 -23.2557 -23.2354
   -23.1813 -23.1682 -23.0835 -23.0505 -23.0022 -22.9930 -22.8492 -22.7558
   -22.6044 -22.4616 -22.4399 -22.2789 -12.8846 -12.8717 -12.7415 -12.3667
   -12.3119 -12.2412 -12.1295 -12.1122 -12.0053 -11.9202 -11.8341 -11.8201
   -11.7578 -11.7214 -11.6733 -11.5942 -11.5116 -11.4172 -11.3969 -11.3079
   -11.2171 -11.1262 -11.0283 -10.9617 -10.8002 -10.7777 -10.5978 -10.5795
   -10.4614 -10.4275 -10.2763 -10.1310 -10.1042 -10.0398 -10.0318  -9.9204
    -9.8663  -9.7604  -9.7322  -9.6354  -9.5997  -9.3967  -9.3684  -9.3532
    -9.2467  -9.1723  -8.9304  -8.9215  -8.8240  -8.7663  -8.7509  -8.6912
    -8.6837  -8.6164  -8.6128  -8.5296  -8.5250  -8.3910  -8.3826  -8.2202
    -8.2187  -8.1180  -8.0973  -8.0144  -7.9987  -7.9345  -7.8097  -7.7473
    -7.5939  -7.5871  -7.5379  -7.4832  -7.4302  -7.3253  -7.2050  -7.1621
    -7.0675  -7.0491  -6.9027  -6.8733  -6.8237  -6.7136  -6.6251  -6.6239
    -5.7433  -5.7067  -5.5728  -5.5636  -5.5384  -5.4872  -5.4312  -5.4209
    -5.3880  -5.3500  -5.2922  -5.1968  -5.1328  -5.1317  -5.0531  -4.9653
    -4.9565  -4.8541  -4.8068  -4.7947  -4.6598  -4.5504  -4.5153  -4.4309
    -4.3608  -4.3432  -4.1486  -4.0680  -3.8862  -3.7734  -3.7606  -3.7244
    -3.6261  -3.6113  -3.3831  -3.2925  -2.7746  -2.5679  -2.5535  -2.3624
    -2.2103  -2.1931  -1.6405  -1.2650  -1.0861  -0.9347  -0.8596  -0.7742
    -0.7069  -0.6789  -0.5437  -0.3753  -0.2303  -0.1378  -0.0362   0.2215
     0.2656   0.3442

          k =-0.2500 0.2763 0.0000 ( 34692 PWs)   bands (ev):

   -78.8522 -78.8394 -78.3532 -78.3409 -78.3329 -78.3206 -78.1883 -78.1758
   -78.0180 -78.0127 -77.9390 -77.9250 -49.3623 -49.3496 -48.8004 -48.7876
   -48.6450 -48.6326 -48.6165 -48.6041 -48.4471 -48.4344 -48.3604 -48.3479
   -48.3444 -48.3322 -48.3249 -48.3107 -48.3063 -48.2939 -48.2601 -48.2479
   -48.2181 -48.1852 -48.1658 -48.1518 -48.1386 -48.1264 -48.1111 -48.0268
   -47.9249 -47.9124 -47.8631 -47.8316 -47.8114 -47.7785 -47.7375 -47.7243
   -24.7340 -24.6304 -24.4762 -24.1694 -24.1283 -24.0132 -23.9238 -23.8759
   -23.6673 -23.5727 -23.4765 -23.4697 -23.4408 -23.3460 -23.2519 -23.2321
   -23.1768 -23.1644 -23.0899 -23.0485 -23.0033 -22.9963 -22.8489 -22.7557
   -22.6039 -22.4605 -22.4401 -22.2798 -12.8818 -12.8690 -12.7434 -12.3617
   -12.3069 -12.2430 -12.1326 -12.1111 -12.0132 -11.9084 -11.8483 -11.8401
   -11.7983 -11.7150 -11.6847 -11.5702 -11.5040 -11.4214 -11.3520 -11.3177
   -11.1869 -11.1431 -11.0328 -10.9474 -10.8029 -10.7854 -10.6390 -10.5801
   -10.4632 -10.3541 -10.2952 -10.1215 -10.0811 -10.0536 -10.0244  -9.9399
    -9.8627  -9.7509  -9.7448  -9.6667  -9.6322  -9.4151  -9.4015  -9.2724
    -9.2453  -9.1441  -8.9487  -8.9222  -8.8197  -8.7965  -8.7533  -8.6869
    -8.6625  -8.6083  -8.5968  -8.5180  -8.5085  -8.4197  -8.3620  -8.2397
    -8.2293  -8.1648  -8.1332  -8.0161  -7.9829  -7.8953  -7.7791  -7.7050
    -7.6238  -7.5746  -7.5354  -7.4940  -7.4661  -7.3540  -7.1943  -7.1556
    -7.0522  -7.0283  -6.9140  -6.8858  -6.8365  -6.7338  -6.6306  -6.5836
    -5.7703  -5.7130  -5.5940  -5.5489  -5.5435  -5.4696  -5.4382  -5.4238
    -5.3492  -5.2965  -5.2459  -5.2215  -5.1254  -5.0877  -5.0698  -4.9866
    -4.9812  -4.9317  -4.8082  -4.7559  -4.6784  -4.5715  -4.5390  -4.4729
    -4.3475  -4.2858  -4.1511  -4.0719  -3.8823  -3.7784  -3.7578  -3.7187
    -3.6261  -3.6141  -3.3822  -3.2945  -2.7740  -2.5600  -2.5471  -2.3650
    -2.2108  -2.1918  -1.6423  -1.2608  -1.0844  -0.9312  -0.8456  -0.7921
    -0.7022  -0.6852  -0.5404  -0.3746  -0.2343  -0.1357  -0.0248   0.2372
     0.2584   0.3390

     the Fermi energy is    -4.5685 ev

!    total energy              =   -3432.58855196 Ry
     estimated scf accuracy    <          5.1E-10 Ry
     smearing contrib. (-TS)   =       0.03576392 Ry
     internal energy E=F+TS    =   -3432.62431588 Ry

     The total energy is F=E-TS. E is the sum of the following terms:
     one-electron contribution =  -25747.81708503 Ry
     hartree contribution      =   12848.57189535 Ry
     xc contribution           =    -446.42066393 Ry
     ewald contribution        =    9982.06406233 Ry
     one-center paw contrib.   =    -266.56928638 Ry
     electrostatic embedding   =      -0.03322803 Ry
     cavitation energy         =       0.02083739 Ry
     PV energy                 =      -0.07925954 Ry
     correction to one-el term =     197.63841196 Ry

     WARNING: you are using the parabolic pbc correction;
              the potential shift above must be added to 
              band and Fermi energies.

     convergence has been achieved in  39 iterations

     negative rho (up, down):  1.563E-04 0.000E+00

     Forces acting on atoms (cartesian axes, Ry/au):

     atom    1 type  1   force =    -0.00007910   -0.00028798    0.00034695
     atom    2 type  1   force =     0.00049687    0.00003481   -0.00062206
     atom    3 type  1   force =    -0.00044111    0.00032838   -0.00022865
     atom    4 type  1   force =     0.00010733    0.00025173   -0.00009514
     atom    5 type  2   force =    -0.00079497    0.00004430   -0.00012482
     atom    6 type  2   force =     0.00046734   -0.00023825    0.00030348
     atom    7 type  1   force =     0.00075546    0.00022992    0.00003552
     atom    8 type  1   force =    -0.00079950   -0.00006352    0.00008054
     atom    9 type  2   force =    -0.00018565   -0.00008085    0.00078130
     atom   10 type  2   force =    -0.00004224    0.00002624   -0.00017848
     atom   11 type  1   force =     0.00078067   -0.00015933   -0.00071746
     atom   12 type  1   force =    -0.00041932   -0.00031516   -0.00086040
     atom   13 type  1   force =    -0.00036240    0.00002054    0.00080831
     atom   14 type  1   force =    -0.00026170   -0.00046272   -0.00130379
     atom   15 type  1   force =    -0.00004877   -0.00025215   -0.00058544
     atom   16 type  1   force =     0.00047416    0.00059438    0.00019874
     atom   17 type  2   force =     0.00017119    0.00045106    0.00000000
     atom   18 type  2   force =     0.00021525    0.00013733    0.00000000
     atom   19 type  1   force =     0.00023946    0.00054077    0.00000000
     atom   20 type  1   force =     0.00010192    0.00050521    0.00000000
     atom   21 type  2   force =     0.00191345    0.00029118    0.00000000
     atom   22 type  2   force =    -0.00143897    0.00029866    0.00000000
     atom   23 type  1   force =     0.00017112    0.00009700    0.00000000
     atom   24 type  1   force =     0.00006129    0.00016862    0.00000000
     atom   25 type  1   force =    -0.00004877   -0.00025215    0.00058544
     atom   26 type  1   force =     0.00047416    0.00059438   -0.00019874
     atom   27 type  1   force =    -0.00036240    0.00002054   -0.00080831
     atom   28 type  1   force =    -0.00026170   -0.00046272    0.00130379
     atom   29 type  2   force =    -0.00079497    0.00004430    0.00012482
     atom   30 type  2   force =     0.00046734   -0.00023825   -0.00030348
     atom   31 type  1   force =     0.00075546    0.00022992   -0.00003552
     atom   32 type  1   force =    -0.00079950   -0.00006352   -0.00008054
     atom   33 type  2   force =    -0.00018565   -0.00008085   -0.00078130
     atom   34 type  2   force =    -0.00004224    0.00002624    0.00017848
     atom   35 type  1   force =     0.00078067   -0.00015933    0.00071746
     atom   36 type  1   force =    -0.00041932   -0.00031516    0.00086040
     atom   37 type  1   force =    -0.00044111    0.00032838    0.00022865
     atom   38 type  1   force =     0.00010733    0.00025173    0.00009514
     atom   39 type  1   force =    -0.00007910   -0.00028798   -0.00034695
     atom   40 type  1   force =     0.00049687    0.00003481    0.00062206
     atom   41 type  3   force =    -0.00007342   -0.00061252    0.00049261
     atom   42 type  3   force =    -0.00007342   -0.00061252   -0.00049261
     atom   43 type  3   force =    -0.00029101   -0.00030273   -0.00009882
     atom   44 type  3   force =    -0.00029101   -0.00030273    0.00009882
     The non-local contrib.  to forces
     atom    1 type  1   force =     1.52820658    0.76054033    0.15384514
     atom    2 type  1   force =    -0.00264972    0.03617175    1.32102011
     atom    3 type  1   force =    -0.00089839    1.41032116    0.05499698
     atom    4 type  1   force =    -0.00094076    0.01576549    1.12003877
     atom    5 type  2   force =     0.03195531    0.00442623   -0.01673547
     atom    6 type  2   force =    -0.03107817    0.00693187   -0.01926280
     atom    7 type  1   force =     0.08777769   -0.08733869   -0.21623609
     atom    8 type  1   force =    -0.08696872   -0.09512008   -0.15916485
     atom    9 type  2   force =     0.01120660    0.00735605    0.01587631
     atom   10 type  2   force =    -0.00157766    0.00466775   -0.05235352
     atom   11 type  1   force =     0.04401200    0.07543880    0.00142728
     atom   12 type  1   force =    -0.03813847    0.05049378   -0.00021937
     atom   13 type  1   force =    -0.00357808    0.00435608    0.14142766
     atom   14 type  1   force =    -0.00419034    0.04652467   -0.04400753
     atom   15 type  1   force =    -0.01476673   -0.02437187   -0.04929202
     atom   16 type  1   force =    -0.00674557   -0.01127303    0.21801652
     atom   17 type  2   force =    -0.00971914    0.00232591    0.00000000
     atom   18 type  2   force =    -0.01244864    0.00256832    0.00000000
     atom   19 type  1   force =     0.03081785    0.08692603    0.00000000
     atom   20 type  1   force =    -0.00801917    0.08384234    0.00000000
     atom   21 type  2   force =     0.00447584    0.00218488    0.00000000
     atom   22 type  2   force =     0.01718835   -0.00019104    0.00000000
     atom   23 type  1   force =     0.02017196   -0.08706746    0.00000000
     atom   24 type  1   force =     0.00544639   -0.08547157    0.00000000
     atom   25 type  1   force =    -0.01476673   -0.02437187    0.04929202
     atom   26 type  1   force =    -0.00674557   -0.01127303   -0.21801652
     atom   27 type  1   force =    -0.00357808    0.00435608   -0.14142766
     atom   28 type  1   force =    -0.00419034    0.04652467    0.04400753
     atom   29 type  2   force =     0.03195531    0.00442623    0.01673547
     atom   30 type  2   force =    -0.03107817    0.00693187    0.01926280
     atom   31 type  1   force =     0.08777769   -0.08733869    0.21623609
     atom   32 type  1   force =    -0.08696872   -0.09512008    0.15916485
     atom   33 type  2   force =     0.01120660    0.00735605   -0.01587631
     atom   34 type  2   force =    -0.00157766    0.00466775    0.05235352
     atom   35 type  1   force =     0.04401200    0.07543880   -0.00142728
     atom   36 type  1   force =    -0.03813847    0.05049378    0.00021937
     atom   37 type  1   force =    -0.00089839    1.41032116   -0.05499698
     atom   38 type  1   force =    -0.00094076    0.01576549   -1.12003877
     atom   39 type  1   force =     1.52820658    0.76054033   -0.15384514
     atom   40 type  1   force =    -0.00264972    0.03617175   -1.32102011
     atom   41 type  3   force =    -0.08163960   -0.04523112    0.05697228
     atom   42 type  3   force =    -0.08163960   -0.04523112   -0.05697228
     atom   43 type  3   force =     0.00029402   -0.08099675    0.05391673
     atom   44 type  3   force =     0.00029402   -0.08099675   -0.05391673
     The ionic contribution  to forces
     atom    1 type  1   force =    -2.63371367   -0.94481999  -96.15847095
     atom    2 type  1   force =     0.09397121   -0.06336073 -102.31304764
     atom    3 type  1   force =    -0.04598127   -3.46565495  -92.57768912
     atom    4 type  1   force =     0.04121855   -0.31520792  -95.60471387
     atom    5 type  2   force =    -3.23385631   -0.88734059 -175.14065330
     atom    6 type  2   force =     3.20858399   -1.17306446 -175.39663676
     atom    7 type  1   force =    -0.02670442   -0.17552799  -60.42859699
     atom    8 type  1   force =    -0.08929029   -0.17267009  -61.70868771
     atom    9 type  2   force =     0.08961579    1.75393106 -170.49863071
     atom   10 type  2   force =     0.09484719    1.28307972 -175.72261714
     atom   11 type  1   force =    -0.02530634    0.43111112  -65.84559400
     atom   12 type  1   force =    -0.01847098    0.65252276  -65.20416090
     atom   13 type  1   force =    -0.00228461   -0.32148177  -39.99142554
     atom   14 type  1   force =     0.03223556   -0.43150954  -38.01022349
     atom   15 type  1   force =    -0.06248802    0.22595237  -25.30131390
     atom   16 type  1   force =     0.02847223    0.25841944  -27.46519878
     atom   17 type  2   force =    -0.15091593    0.12163670   -0.00043050
     atom   18 type  2   force =    -0.12689133    0.29387143   -0.00044402
     atom   19 type  1   force =    -0.02443243    0.38860418   -0.00008080
     atom   20 type  1   force =     0.05268035    0.47435575   -0.00007985
     atom   21 type  2   force =     1.44886357    0.01877208   -0.00024443
     atom   22 type  2   force =    -0.89334321   -0.16535545   -0.00024275
     atom   23 type  1   force =    -0.02073225   -0.44598933   -0.00007754
     atom   24 type  1   force =     0.00169855   -0.41021411   -0.00007789
     atom   25 type  1   force =    -0.06249281    0.22595283   25.30108705
     atom   26 type  1   force =     0.02847162    0.25842097   27.46501424
     atom   27 type  1   force =    -0.00228490   -0.32148376   39.99172281
     atom   28 type  1   force =     0.03223576   -0.43151478   38.01054304
     atom   29 type  2   force =    -3.23378953   -0.88734265  175.14090506
     atom   30 type  2   force =     3.20851752   -1.17306704  175.39688833
     atom   31 type  1   force =    -0.02669927   -0.17555707   60.42866472
     atom   32 type  1   force =    -0.08929498   -0.17269734   61.70875620
     atom   33 type  2   force =     0.08960731    1.75393604  170.49875571
     atom   34 type  2   force =     0.09485234    1.28307996  175.72275892
     atom   35 type  1   force =    -0.02530330    0.43114177   65.84565509
     atom   36 type  1   force =    -0.01847329    0.65255084   65.20422732
     atom   37 type  1   force =    -0.04598207   -3.46587016   92.57778800
     atom   38 type  1   force =     0.04121937   -0.31520949   95.60485841
     atom   39 type  1   force =    -2.63380364   -0.94486084   96.15855746
     atom   40 type  1   force =     0.09397328   -0.06335914  102.31310891
     atom   41 type  3   force =     2.40912305    1.48388034  -16.80250964
     atom   42 type  3   force =     2.40921358    1.48392887   16.80255067
     atom   43 type  3   force =    -0.00343293    1.72390405  -17.12664201
     atom   44 type  3   force =    -0.00343304    1.72410695   17.12664829
     The local contribution  to forces
     atom    1 type  1   force =     1.02086946    0.19390322   96.02755813
     atom    2 type  1   force =    -0.02111626    0.02401835  100.95215431
     atom    3 type  1   force =     0.02264417    2.04848556   92.53875959
     atom    4 type  1   force =    -0.02177017    0.29827633   94.45566930
     atom    5 type  2   force =     3.22834695    0.88114638  175.17712270
     atom    6 type  2   force =    -3.20051745    1.15767480  175.39608873
     atom    7 type  1   force =    -0.05039325    0.26163767   60.65314164
     atom    8 type  1   force =     0.16563845    0.27140303   61.85672092
     atom    9 type  2   force =    -0.13847559   -1.75668253  170.49959457
     atom   10 type  2   force =    -0.05332897   -1.28698451  175.74308076
     atom   11 type  1   force =    -0.00868742   -0.50415728   65.85858843
     atom   12 type  1   force =     0.04773158   -0.70542082   65.18793607
     atom   13 type  1   force =     0.00220742    0.31653005   39.85415866
     atom   14 type  1   force =    -0.02518435    0.38480126   38.04878001
     atom   15 type  1   force =     0.07500834   -0.20188370   25.34981737
     atom   16 type  1   force =    -0.01921575   -0.24650302   27.24777660
     atom   17 type  2   force =     0.15801539   -0.12383785   -0.00589899
     atom   18 type  2   force =     0.14233373   -0.29651289   -0.00586961
     atom   19 type  1   force =    -0.00491853   -0.47473704   -0.00247269
     atom   20 type  1   force =    -0.04549100   -0.55736543   -0.00247478
     atom   21 type  2   force =    -1.44903455   -0.02048778   -0.00606624
     atom   22 type  2   force =     0.87241946    0.16618469   -0.00607117
     atom   23 type  1   force =     0.00180370    0.53282257   -0.00247974
     atom   24 type  1   force =    -0.00785692    0.49544051   -0.00248039
     atom   25 type  1   force =     0.07499902   -0.20188738  -25.35159140
     atom   26 type  1   force =    -0.01921813   -0.24651049  -27.24957200
     atom   27 type  1   force =     0.00220608    0.31653468  -39.85594695
     atom   28 type  1   force =    -0.02518461    0.38480193  -38.05052960
     atom   29 type  2   force =     3.22835967    0.88113414 -175.18323871
     atom   30 type  2   force =    -3.20053080    1.15767845 -175.40220720
     atom   31 type  1   force =    -0.05037397    0.26163894  -60.65559062
     atom   32 type  1   force =     0.16562140    0.27140436  -61.85918456
     atom   33 type  2   force =    -0.13847901   -1.75673261 -170.50546012
     atom   34 type  2   force =    -0.05333773   -1.28698710 -175.74884112
     atom   35 type  1   force =    -0.00865511   -0.50416312  -65.86106280
     atom   36 type  1   force =     0.04770230   -0.70542651  -65.19041369
     atom   37 type  1   force =     0.02264417    2.04859818  -92.54257216
     atom   38 type  1   force =    -0.02177055    0.29827348  -94.45956189
     atom   39 type  1   force =     1.02090835    0.19388442  -96.02913421
     atom   40 type  1   force =    -0.02112490    0.02400128 -100.95352478
     atom   41 type  3   force =    -2.35109576   -1.45185711   16.77237661
     atom   42 type  3   force =    -2.35109576   -1.45185711  -16.77237661
     atom   43 type  3   force =    -0.00359006   -1.64440904   17.08248281
     atom   44 type  3   force =    -0.00359006   -1.64440904  -17.08248281
     The core correction contribution to forces
     atom    1 type  1   force =    -0.01545258   -0.00768933   -0.00202937
     atom    2 type  1   force =     0.00003154   -0.00028124   -0.01107464
     atom    3 type  1   force =     0.00001548   -0.01385741   -0.00132919
     atom    4 type  1   force =     0.00001002   -0.00020019   -0.01124873
     atom    5 type  2   force =     0.00000000    0.00000000    0.00000000
     atom    6 type  2   force =     0.00000000    0.00000000    0.00000000
     atom    7 type  1   force =    -0.00114186    0.00024799    0.00218503
     atom    8 type  1   force =     0.00116533    0.00032075    0.00163584
     atom    9 type  2   force =     0.00000000    0.00000000    0.00000000
     atom   10 type  2   force =     0.00000000    0.00000000    0.00000000
     atom   11 type  1   force =    -0.00070609   -0.00003074    0.00005629
     atom   12 type  1   force =     0.00069938    0.00013195    0.00000422
     atom   13 type  1   force =     0.00003529   -0.00001882   -0.00142934
     atom   14 type  1   force =     0.00004183   -0.00052512    0.00049175
     atom   15 type  1   force =     0.00019475    0.00028604    0.00035933
     atom   16 type  1   force =     0.00006702    0.00008315   -0.00274652
     atom   17 type  2   force =     0.00000000    0.00000000    0.00000000
     atom   18 type  2   force =     0.00000000    0.00000000    0.00000000
     atom   19 type  1   force =    -0.00035089   -0.00031660   -0.00000211
     atom   20 type  1   force =     0.00005724   -0.00030217   -0.00000212
     atom   21 type  2   force =     0.00000000    0.00000000    0.00000000
     atom   22 type  2   force =     0.00000000    0.00000000    0.00000000
     atom   23 type  1   force =    -0.00022672    0.00034200   -0.00000205
     atom   24 type  1   force =    -0.00006461    0.00028825   -0.00000209
     atom   25 type  1   force =     0.00019471    0.00028619   -0.00036156
     atom   26 type  1   force =     0.00006702    0.00008316    0.00274448
     atom   27 type  1   force =     0.00003529   -0.00001883    0.00142708
     atom   28 type  1   force =     0.00004183   -0.00052521   -0.00049413
     atom   29 type  2   force =     0.00000000    0.00000000    0.00000000
     atom   30 type  2   force =     0.00000000    0.00000000    0.00000000
     atom   31 type  1   force =    -0.00114185    0.00024792   -0.00218667
     atom   32 type  1   force =     0.00116529    0.00032072   -0.00163762
     atom   33 type  2   force =     0.00000000    0.00000000    0.00000000
     atom   34 type  2   force =     0.00000000    0.00000000    0.00000000
     atom   35 type  1   force =    -0.00070593   -0.00003069   -0.00005818
     atom   36 type  1   force =     0.00069930    0.00013198   -0.00000604
     atom   37 type  1   force =     0.00001549   -0.01385930    0.00132545
     atom   38 type  1   force =     0.00001000   -0.00020039    0.01124446
     atom   39 type  1   force =    -0.01545319   -0.00768962    0.00202669
     atom   40 type  1   force =     0.00003151   -0.00028130    0.01107295
     atom   41 type  3   force =     0.00000000    0.00000000    0.00000000
     atom   42 type  3   force =     0.00000000    0.00000000    0.00000000
     atom   43 type  3   force =     0.00000000    0.00000000    0.00000000
     atom   44 type  3   force =     0.00000000    0.00000000    0.00000000
     The Hubbard contrib.    to forces
     atom    1 type  1   force =     0.00000000    0.00000000    0.00000000
     atom    2 type  1   force =     0.00000000    0.00000000    0.00000000
     atom    3 type  1   force =     0.00000000    0.00000000    0.00000000
     atom    4 type  1   force =     0.00000000    0.00000000    0.00000000
     atom    5 type  2   force =     0.00000000    0.00000000    0.00000000
     atom    6 type  2   force =     0.00000000    0.00000000    0.00000000
     atom    7 type  1   force =     0.00000000    0.00000000    0.00000000
     atom    8 type  1   force =     0.00000000    0.00000000    0.00000000
     atom    9 type  2   force =     0.00000000    0.00000000    0.00000000
     atom   10 type  2   force =     0.00000000    0.00000000    0.00000000
     atom   11 type  1   force =     0.00000000    0.00000000    0.00000000
     atom   12 type  1   force =     0.00000000    0.00000000    0.00000000
     atom   13 type  1   force =     0.00000000    0.00000000    0.00000000
     atom   14 type  1   force =     0.00000000    0.00000000    0.00000000
     atom   15 type  1   force =     0.00000000    0.00000000    0.00000000
     atom   16 type  1   force =     0.00000000    0.00000000    0.00000000
     atom   17 type  2   force =     0.00000000    0.00000000    0.00000000
     atom   18 type  2   force =     0.00000000    0.00000000    0.00000000
     atom   19 type  1   force =     0.00000000    0.00000000    0.00000000
     atom   20 type  1   force =     0.00000000    0.00000000    0.00000000
     atom   21 type  2   force =     0.00000000    0.00000000    0.00000000
     atom   22 type  2   force =     0.00000000    0.00000000    0.00000000
     atom   23 type  1   force =     0.00000000    0.00000000    0.00000000
     atom   24 type  1   force =     0.00000000    0.00000000    0.00000000
     atom   25 type  1   force =     0.00000000    0.00000000    0.00000000
     atom   26 type  1   force =     0.00000000    0.00000000    0.00000000
     atom   27 type  1   force =     0.00000000    0.00000000    0.00000000
     atom   28 type  1   force =     0.00000000    0.00000000    0.00000000
     atom   29 type  2   force =     0.00000000    0.00000000    0.00000000
     atom   30 type  2   force =     0.00000000    0.00000000    0.00000000
     atom   31 type  1   force =     0.00000000    0.00000000    0.00000000
     atom   32 type  1   force =     0.00000000    0.00000000    0.00000000
     atom   33 type  2   force =     0.00000000    0.00000000    0.00000000
     atom   34 type  2   force =     0.00000000    0.00000000    0.00000000
     atom   35 type  1   force =     0.00000000    0.00000000    0.00000000
     atom   36 type  1   force =     0.00000000    0.00000000    0.00000000
     atom   37 type  1   force =     0.00000000    0.00000000    0.00000000
     atom   38 type  1   force =     0.00000000    0.00000000    0.00000000
     atom   39 type  1   force =     0.00000000    0.00000000    0.00000000
     atom   40 type  1   force =     0.00000000    0.00000000    0.00000000
     atom   41 type  3   force =     0.00000000    0.00000000    0.00000000
     atom   42 type  3   force =     0.00000000    0.00000000    0.00000000
     atom   43 type  3   force =     0.00000000    0.00000000    0.00000000
     atom   44 type  3   force =     0.00000000    0.00000000    0.00000000
     The SCF correction term to forces
     atom    1 type  1   force =     0.00001615    0.00000194    0.00000893
     atom    2 type  1   force =    -0.00001282    0.00000186    0.00000806
     atom    3 type  1   force =     0.00000353    0.00000201    0.00000630
     atom    4 type  1   force =    -0.00000271   -0.00000076    0.00000756
     atom    5 type  2   force =    -0.00001662   -0.00000077    0.00002664
     atom    6 type  2   force =     0.00001621    0.00000188    0.00003401
     atom    7 type  1   force =    -0.00000701    0.00000359    0.00000831
     atom    8 type  1   force =     0.00000670   -0.00000163    0.00001438
     atom    9 type  2   force =     0.00001684   -0.00000031    0.00002039
     atom   10 type  2   force =    -0.00001662    0.00000147    0.00004286
     atom   11 type  1   force =    -0.00000664   -0.00000388    0.00000695
     atom   12 type  1   force =     0.00000659    0.00000087    0.00001474
     atom   13 type  1   force =     0.00000029    0.00000010    0.00001727
     atom   14 type  1   force =    -0.00000030   -0.00000002    0.00002128
     atom   15 type  1   force =    -0.00000058    0.00000014    0.00000720
     atom   16 type  1   force =     0.00000034    0.00000020    0.00001032
     atom   17 type  2   force =    -0.00000110    0.00000008    0.00001106
     atom   18 type  2   force =     0.00000043    0.00000020    0.00001111
     atom   19 type  1   force =    -0.00000134   -0.00000633    0.00000396
     atom   20 type  1   force =     0.00000148   -0.00000475    0.00000396
     atom   21 type  2   force =    -0.00000358    0.00000032    0.00001086
     atom   22 type  2   force =     0.00000431   -0.00000003    0.00001086
     atom   23 type  1   force =    -0.00000139    0.00000622    0.00000400
     atom   24 type  1   force =     0.00000157    0.00000472    0.00000401
     atom   25 type  1   force =    -0.00000058    0.00000018   -0.00000227
     atom   26 type  1   force =     0.00000034    0.00000025   -0.00000574
     atom   27 type  1   force =     0.00000028    0.00000002   -0.00001627
     atom   28 type  1   force =    -0.00000028   -0.00000008   -0.00002016
     atom   29 type  2   force =    -0.00001637   -0.00000104   -0.00003679
     atom   30 type  2   force =     0.00001597    0.00000154   -0.00004417
     atom   31 type  1   force =    -0.00000694    0.00000337   -0.00001172
     atom   32 type  1   force =     0.00000662   -0.00000185   -0.00001790
     atom   33 type  2   force =     0.00001684    0.00000009   -0.00003083
     atom   34 type  2   force =    -0.00001659    0.00000174   -0.00005393
     atom   35 type  1   force =    -0.00000660   -0.00000357   -0.00001067
     atom   36 type  1   force =     0.00000654    0.00000119   -0.00001840
     atom   37 type  1   force =     0.00000352    0.00000173   -0.00001019
     atom   38 type  1   force =    -0.00000269   -0.00000086   -0.00001163
     atom   39 type  1   force =     0.00001604    0.00000203   -0.00001152
     atom   40 type  1   force =    -0.00001279    0.00000193   -0.00001068
     atom   41 type  3   force =     0.00000007   -0.00000030    0.00000176
     atom   42 type  3   force =     0.00000016   -0.00000023   -0.00000198
     atom   43 type  3   force =     0.00000075    0.00000036    0.00000109
     atom   44 type  3   force =     0.00000075    0.00000034   -0.00000150

     Total force =     0.005380     Total SCF correction =     0.000139

     BFGS Geometry Optimization
     Energy error            =      0.0E+00 Ry
     Gradient error          =      1.9E-03 Ry/Bohr

     number of scf cycles    =   1
     number of bfgs steps    =   0

     energy             new  =   -3432.5885519610 Ry

     new trust radius        =       0.0019354786 bohr
     new conv_thr            =       0.0000000010 Ry


ATOMIC_POSITIONS (crystal)
O            -0.0052489572        0.4503897337        0.2709092574
O             0.4972014474        0.4902459770        0.2737880992
O             0.0008355785        0.0073751689        0.2997699236
O             0.5003630313       -0.0007287779        0.3078263021
Ru            0.2581108796       -0.0002869153        0.3563124793
Ru            0.7429675650       -0.0002232460        0.3561945491
O             0.2502448209        0.3124481160        0.3626106002
O             0.7516399001        0.3117497539        0.3606948314
Ru           -0.0003547278        0.4985371072        0.3585397954
Ru            0.5006397396        0.4984495264        0.3512844090
O             0.2436675217        0.6873542216        0.3555085978
O             0.7564653791        0.6862889887        0.3566313022
O             0.0000717999       -0.0021397148        0.4114942045
O             0.5005733788       -0.0044272041        0.4117541875
O             0.0045282953        0.5026059683        0.4467858159
O             0.5036169354        0.5040577002        0.4438135410
Ru            0.0002059996        0.0001032348        0.5000010000
Ru            0.5003683847        0.0010547531        0.5000010000
O             0.2493349236        0.1872367526        0.5000010000
O             0.7494752296        0.1871691747        0.5000010000
Ru            0.2558383153        0.5010992422        0.5000010000
Ru            0.7513431675        0.5012843360        0.5000010000
O             0.2499322793        0.8149799592        0.5000010000
O             0.7495003699        0.8147201415        0.5000010000
O             0.0045282953        0.5026059683        0.5532151841
O             0.5036169354        0.5040577002        0.5561874590
O             0.0000717999       -0.0021397148        0.5885067955
O             0.5005733788       -0.0044272041        0.5882468125
Ru            0.2581108796       -0.0002869153        0.6436885207
Ru            0.7429675650       -0.0002232460        0.6438064509
O             0.2502448209        0.3124481160        0.6373903998
O             0.7516399001        0.3117497539        0.6393061686
Ru           -0.0003547278        0.4985371072        0.6414612046
Ru            0.5006397396        0.4984495264        0.6487165910
O             0.2436675217        0.6873542216        0.6444924022
O             0.7564653791        0.6862889887        0.6433696978
O             0.0008355785        0.0073751689        0.7002320764
O             0.5003630313       -0.0007287779        0.6921756979
O            -0.0052489572        0.4503897337        0.7290917426
O             0.4972014474        0.4902459770        0.7262129008
H             0.1086604565        0.5188834852        0.2490250482
H             0.1086604565        0.5188834852        0.7509749518
H             0.0006526211        0.1498133141        0.2754928727
H             0.0006526211        0.1498133141        0.7245071273



     Writing config-only to output data dir /storage/home/mgm6007/ixd4/Maria/Strain1_Files/RuO2-110-0-02/RuO2-110-0-02.save/
     NEW-OLD atomic charge density approx. for the potential

     Check: negative core charge=   -0.000001

     negative rho (up, down):  1.563E-04 0.000E+00

     add environment contribution to local potential
     Polarization accuracy = 6.8E-12, # of iterations =  44

     total cpu time spent up to now is    17717.5 secs

     per-process dynamical memory:   216.1 Mb

     Self-consistent Calculation

     iteration #  1     ecut=    50.00 Ry     beta= 0.70
     Davidson diagonalization with overlap
     ethr =  1.00E-06,  avg # of iterations =  2.0

     Threshold (ethr) on eigenvalues was too large:
     Diagonalizing with lowered threshold

     Davidson diagonalization with overlap
     ethr =  2.31E-09,  avg # of iterations =  4.0

     negative rho (up, down):  1.619E-04 0.000E+00

     add environment contribution to local potential
     Polarization accuracy = 6.6E-12, # of iterations =  44

     total cpu time spent up to now is    17870.3 secs

     total energy              =   -3432.58857483 Ry
     estimated scf accuracy    <       0.00000839 Ry
     electrostatic embedding   =      -0.03326017 Ry
     cavitation energy         =       0.02083783 Ry
     PV energy                 =      -0.07925845 Ry
     correction to one-el term =     197.63384969 Ry

     iteration #  2     ecut=    50.00 Ry     beta= 0.70
     Davidson diagonalization with overlap
     ethr =  2.31E-09,  avg # of iterations =  1.0

     negative rho (up, down):  1.619E-04 0.000E+00

     add environment contribution to local potential
     Polarization accuracy = 6.6E-12, # of iterations =  44

     total cpu time spent up to now is    18003.0 secs

     total energy              =   -3432.58857491 Ry
     estimated scf accuracy    <       0.00000898 Ry
     electrostatic embedding   =      -0.03325460 Ry
     cavitation energy         =       0.02083803 Ry
     PV energy                 =      -0.07925827 Ry
     correction to one-el term =     197.63933329 Ry

     iteration #  3     ecut=    50.00 Ry     beta= 0.70
     Davidson diagonalization with overlap
     ethr =  2.31E-09,  avg # of iterations =  1.0

     negative rho (up, down):  1.658E-04 0.000E+00

     add environment contribution to local potential
     Polarization accuracy = 6.5E-12, # of iterations =  44

     total cpu time spent up to now is    18157.0 secs

     total energy              =   -3432.58857561 Ry
     estimated scf accuracy    <       0.00000245 Ry
     electrostatic embedding   =      -0.03325053 Ry
     cavitation energy         =       0.02083795 Ry
     PV energy                 =      -0.07925873 Ry
     correction to one-el term =     197.63956091 Ry

     iteration #  4     ecut=    50.00 Ry     beta= 0.70
     Davidson diagonalization with overlap
     ethr =  6.73E-10,  avg # of iterations =  1.0

     negative rho (up, down):  1.666E-04 0.000E+00

     add environment contribution to local potential
     Polarization accuracy = 6.5E-12, # of iterations =  44

     total cpu time spent up to now is    18290.6 secs

     total energy              =   -3432.58857570 Ry
     estimated scf accuracy    <       0.00000030 Ry
     electrostatic embedding   =      -0.03324778 Ry
     cavitation energy         =       0.02083801 Ry
     PV energy                 =      -0.07925876 Ry
     correction to one-el term =     197.64331426 Ry

     iteration #  5     ecut=    50.00 Ry     beta= 0.70
     Davidson diagonalization with overlap
     ethr =  8.26E-11,  avg # of iterations =  2.0

     negative rho (up, down):  1.669E-04 0.000E+00

     add environment contribution to local potential
     Polarization accuracy = 6.5E-12, # of iterations =  44

     total cpu time spent up to now is    18424.5 secs

     total energy              =   -3432.58857574 Ry
     estimated scf accuracy    <       0.00000025 Ry
     electrostatic embedding   =      -0.03324665 Ry
     cavitation energy         =       0.02083793 Ry
     PV energy                 =      -0.07925892 Ry
     correction to one-el term =     197.64436758 Ry

     iteration #  6     ecut=    50.00 Ry     beta= 0.70
     Davidson diagonalization with overlap
     ethr =  6.75E-11,  avg # of iterations =  1.0

     negative rho (up, down):  1.665E-04 0.000E+00

     add environment contribution to local potential
     Polarization accuracy = 6.5E-12, # of iterations =  44

     total cpu time spent up to now is    18594.1 secs

     total energy              =   -3432.58857575 Ry
     estimated scf accuracy    <       0.00000006 Ry
     electrostatic embedding   =      -0.03324595 Ry
     cavitation energy         =       0.02083789 Ry
     PV energy                 =      -0.07925900 Ry
     correction to one-el term =     197.64510838 Ry

     iteration #  7     ecut=    50.00 Ry     beta= 0.70
     Davidson diagonalization with overlap
     ethr =  1.66E-11,  avg # of iterations =  5.0

     negative rho (up, down):  1.657E-04 0.000E+00

     add environment contribution to local potential
     Polarization accuracy = 6.5E-12, # of iterations =  44

     total cpu time spent up to now is    18737.7 secs

     total energy              =   -3432.58857577 Ry
     estimated scf accuracy    <       0.00000004 Ry
     electrostatic embedding   =      -0.03324521 Ry
     cavitation energy         =       0.02083782 Ry
     PV energy                 =      -0.07925912 Ry
     correction to one-el term =     197.64574226 Ry

     iteration #  8     ecut=    50.00 Ry     beta= 0.70
     Davidson diagonalization with overlap
     ethr =  9.86E-12,  avg # of iterations =  1.0

     negative rho (up, down):  1.644E-04 0.000E+00

     add environment contribution to local potential
     Polarization accuracy = 6.5E-12, # of iterations =  44

     total cpu time spent up to now is    18883.7 secs

     total energy              =   -3432.58857578 Ry
     estimated scf accuracy    <       0.00000001 Ry
     electrostatic embedding   =      -0.03324447 Ry
     cavitation energy         =       0.02083776 Ry
     PV energy                 =      -0.07925924 Ry
     correction to one-el term =     197.64615186 Ry

     iteration #  9     ecut=    50.00 Ry     beta= 0.70
     Davidson diagonalization with overlap
     ethr =  3.49E-12,  avg # of iterations =  2.0

     negative rho (up, down):  1.630E-04 0.000E+00

     add environment contribution to local potential
     Polarization accuracy = 6.5E-12, # of iterations =  44

     total cpu time spent up to now is    19023.8 secs

     total energy              =   -3432.58857578 Ry
     estimated scf accuracy    <          3.0E-09 Ry
     electrostatic embedding   =      -0.03324358 Ry
     cavitation energy         =       0.02083771 Ry
     PV energy                 =      -0.07925936 Ry
     correction to one-el term =     197.64644379 Ry

     iteration # 10     ecut=    50.00 Ry     beta= 0.70
     Davidson diagonalization with overlap
     ethr =  8.13E-13,  avg # of iterations =  2.0

     negative rho (up, down):  1.614E-04 0.000E+00

     add environment contribution to local potential
     Polarization accuracy = 6.5E-12, # of iterations =  44

     total cpu time spent up to now is    19152.0 secs

     total energy              =   -3432.58857579 Ry
     estimated scf accuracy    <          1.3E-09 Ry
     electrostatic embedding   =      -0.03324283 Ry
     cavitation energy         =       0.02083768 Ry
     PV energy                 =      -0.07925945 Ry
     correction to one-el term =     197.64654582 Ry

     iteration # 11     ecut=    50.00 Ry     beta= 0.70
     Davidson diagonalization with overlap
     ethr =  3.50E-13,  avg # of iterations =  2.0

     negative rho (up, down):  1.563E-04 0.000E+00

     the potential shift due to the Gaussian-smeared nuclei is    -1.3393 ev

     total cpu time spent up to now is    19288.3 secs

     End of self-consistent calculation

          k = 0.2500 0.2763 0.0000 ( 34692 PWs)   bands (ev):

   -78.8524 -78.8396 -78.3541 -78.3417 -78.3342 -78.3218 -78.1895 -78.1770
   -78.0190 -78.0130 -77.9400 -77.9262 -49.3621 -49.3493 -48.8010 -48.7882
   -48.6456 -48.6332 -48.6173 -48.6049 -48.4474 -48.4346 -48.3619 -48.3494
   -48.3447 -48.3324 -48.3262 -48.3121 -48.3081 -48.2956 -48.2605 -48.2482
   -48.2177 -48.1868 -48.1669 -48.1529 -48.1400 -48.1278 -48.1118 -48.0275
   -47.9261 -47.9136 -47.8639 -47.8321 -47.8125 -47.7794 -47.7385 -47.7256
   -24.7341 -24.6301 -24.4763 -24.1718 -24.1312 -24.0157 -23.9259 -23.8778
   -23.6637 -23.5785 -23.4741 -23.4635 -23.4369 -23.3485 -23.2563 -23.2358
   -23.1818 -23.1696 -23.0850 -23.0527 -23.0032 -22.9938 -22.8498 -22.7556
   -22.6041 -22.4627 -22.4403 -22.2812 -12.8850 -12.8720 -12.7427 -12.3678
   -12.3123 -12.2412 -12.1301 -12.1131 -12.0056 -11.9204 -11.8351 -11.8215
   -11.7589 -11.7226 -11.6742 -11.5947 -11.5125 -11.4175 -11.3979 -11.3089
   -11.2186 -11.1273 -11.0302 -10.9625 -10.8010 -10.7783 -10.5981 -10.5803
   -10.4620 -10.4280 -10.2769 -10.1320 -10.1057 -10.0402 -10.0321  -9.9207
    -9.8665  -9.7605  -9.7327  -9.6357  -9.5999  -9.3974  -9.3690  -9.3536
    -9.2473  -9.1730  -8.9306  -8.9220  -8.8248  -8.7672  -8.7514  -8.6922
    -8.6849  -8.6171  -8.6138  -8.5314  -8.5264  -8.3920  -8.3839  -8.2211
    -8.2189  -8.1192  -8.0973  -8.0147  -7.9984  -7.9339  -7.8099  -7.7477
[...]
     atom   40 type  1   force =     0.13474499   -0.04684506  102.29702500
     atom   41 type  3   force =     2.44790300    1.40335192  -16.81490866
     atom   42 type  3   force =     2.44799549    1.40339794   16.81495040
     atom   43 type  3   force =    -0.01164708    1.67271431  -17.07778554
     atom   44 type  3   force =    -0.01164792    1.67291341   17.07778586
     The local contribution  to forces
     atom    1 type  1   force =     1.00812907    0.15813539   95.97929126
     atom    2 type  1   force =    -0.04958784    0.01026259  100.93484555
     atom    3 type  1   force =    -0.02484814    2.13133695   92.52496976
     atom    4 type  1   force =    -0.00050756    0.28920946   94.40920589
     atom    5 type  2   force =     3.21825627    0.94901451  175.18847634
     atom    6 type  2   force =    -3.15085899    1.21591968  175.21463395
     atom    7 type  1   force =    -0.02429167    0.25749336   60.39145764
     atom    8 type  1   force =     0.15012631    0.25503672   61.41327305
     atom    9 type  2   force =    -0.20669190   -1.74479469  170.25779673
     atom   10 type  2   force =     0.04661640   -1.34521628  175.82778153
     atom   11 type  1   force =     0.00892350   -0.51891295   66.27237113
     atom   12 type  1   force =     0.05371178   -0.70812951   65.54208637
     atom   13 type  1   force =    -0.00892860    0.36347865   39.81060434
     atom   14 type  1   force =     0.00313529    0.43890077   38.03590314
     atom   15 type  1   force =     0.04305755   -0.24462709   25.27607950
     atom   16 type  1   force =     0.00750385   -0.27990140   27.32704339
     atom   17 type  2   force =     0.13627372   -0.29076593   -0.00589745
     atom   18 type  2   force =     0.13700298   -0.49392503   -0.00587166
     atom   19 type  1   force =     0.00975187   -0.47645386   -0.00247281
     atom   20 type  1   force =    -0.03431571   -0.54171778   -0.00247450
     atom   21 type  2   force =    -1.37934224    0.00379714   -0.00606650
     atom   22 type  2   force =     0.71899910    0.17494965   -0.00606988
     atom   23 type  1   force =     0.04975578    0.53763750   -0.00247932
     atom   24 type  1   force =    -0.03488299    0.49317641   -0.00247971
     atom   25 type  1   force =     0.04304703   -0.24463450  -25.27785282
     atom   26 type  1   force =     0.00750012   -0.27991289  -27.32883914
     atom   27 type  1   force =    -0.00893004    0.36348018  -39.81239161
     atom   28 type  1   force =     0.00313489    0.43889910  -38.03765364
     atom   29 type  2   force =     3.21826903    0.94899863 -175.19459199
     atom   30 type  2   force =    -3.15087133    1.21591877 -175.22075149
     atom   31 type  1   force =    -0.02427120    0.25749463  -60.39390564
     atom   32 type  1   force =     0.15010858    0.25503817  -61.41573417
     atom   33 type  2   force =    -0.20669586   -1.74484925 -170.26366246
     atom   34 type  2   force =     0.04661005   -1.34521824 -175.83354243
     atom   35 type  1   force =     0.00895727   -0.51891845  -66.27484516
     atom   36 type  1   force =     0.05368123   -0.70813506  -65.54456368
     atom   37 type  1   force =    -0.02484645    2.13145160  -92.52878605
     atom   38 type  1   force =    -0.00050865    0.28920919  -94.41310020
     atom   39 type  1   force =     1.00816857    0.15811214  -95.98087236
     atom   40 type  1   force =    -0.04959169    0.01024632 -100.93621529
     atom   41 type  3   force =    -2.38891761   -1.37203191   16.78429570
     atom   42 type  3   force =    -2.38891761   -1.37203191  -16.78429570
     atom   43 type  3   force =     0.00420944   -1.59412154   17.03491189
     atom   44 type  3   force =     0.00420944   -1.59412154  -17.03491189
     The core correction contribution to forces
     atom    1 type  1   force =    -0.01563965   -0.00722401   -0.00190984
     atom    2 type  1   force =     0.00012835   -0.00027183   -0.01111052
     atom    3 type  1   force =     0.00006899   -0.01368851   -0.00166757
     atom    4 type  1   force =     0.00001186   -0.00014889   -0.01123170
     atom    5 type  2   force =     0.00000000    0.00000000    0.00000000
     atom    6 type  2   force =     0.00000000    0.00000000    0.00000000
     atom    7 type  1   force =    -0.00117097    0.00024148    0.00231600
     atom    8 type  1   force =     0.00115319    0.00032010    0.00182232
     atom    9 type  2   force =     0.00000000    0.00000000    0.00000000
     atom   10 type  2   force =     0.00000000    0.00000000    0.00000000
     atom   11 type  1   force =    -0.00066628   -0.00002877   -0.00015229
     atom   12 type  1   force =     0.00063271    0.00012214   -0.00020591
     atom   13 type  1   force =     0.00001701   -0.00002966   -0.00140056
     atom   14 type  1   force =     0.00003391   -0.00059739    0.00045380
     atom   15 type  1   force =     0.00023343    0.00035027    0.00045214
     atom   16 type  1   force =     0.00010944    0.00012316   -0.00283407
     atom   17 type  2   force =     0.00000000    0.00000000    0.00000000
     atom   18 type  2   force =     0.00000000    0.00000000    0.00000000
     atom   19 type  1   force =    -0.00040780   -0.00030409   -0.00000212
     atom   20 type  1   force =     0.00004656   -0.00028899   -0.00000213
     atom   21 type  2   force =     0.00000000    0.00000000    0.00000000
     atom   22 type  2   force =     0.00000000    0.00000000    0.00000000
     atom   23 type  1   force =    -0.00026955    0.00034969   -0.00000204
     atom   24 type  1   force =    -0.00009759    0.00030204   -0.00000208
     atom   25 type  1   force =     0.00023339    0.00035043   -0.00045438
     atom   26 type  1   force =     0.00010944    0.00012314    0.00283202
     atom   27 type  1   force =     0.00001701   -0.00002967    0.00139830
     atom   28 type  1   force =     0.00003392   -0.00059749   -0.00045619
     atom   29 type  2   force =     0.00000000    0.00000000    0.00000000
     atom   30 type  2   force =     0.00000000    0.00000000    0.00000000
     atom   31 type  1   force =    -0.00117095    0.00024141   -0.00231765
     atom   32 type  1   force =     0.00115315    0.00032006   -0.00182410
     atom   33 type  2   force =     0.00000000    0.00000000    0.00000000
     atom   34 type  2   force =     0.00000000    0.00000000    0.00000000
     atom   35 type  1   force =    -0.00066611   -0.00002872    0.00015039
     atom   36 type  1   force =     0.00063262    0.00012216    0.00020409
     atom   37 type  1   force =     0.00006900   -0.01369034    0.00166385
     atom   38 type  1   force =     0.00001185   -0.00014905    0.01122741
     atom   39 type  1   force =    -0.01564027   -0.00722427    0.00190716
     atom   40 type  1   force =     0.00012836   -0.00027186    0.01110882
     atom   41 type  3   force =     0.00000000    0.00000000    0.00000000
     atom   42 type  3   force =     0.00000000    0.00000000    0.00000000
     atom   43 type  3   force =     0.00000000    0.00000000    0.00000000
     atom   44 type  3   force =     0.00000000    0.00000000    0.00000000
     The Hubbard contrib.    to forces
     atom    1 type  1   force =     0.00000000    0.00000000    0.00000000
     atom    2 type  1   force =     0.00000000    0.00000000    0.00000000
     atom    3 type  1   force =     0.00000000    0.00000000    0.00000000
     atom    4 type  1   force =     0.00000000    0.00000000    0.00000000
     atom    5 type  2   force =     0.00000000    0.00000000    0.00000000
     atom    6 type  2   force =     0.00000000    0.00000000    0.00000000
     atom    7 type  1   force =     0.00000000    0.00000000    0.00000000
     atom    8 type  1   force =     0.00000000    0.00000000    0.00000000
     atom    9 type  2   force =     0.00000000    0.00000000    0.00000000
     atom   10 type  2   force =     0.00000000    0.00000000    0.00000000
     atom   11 type  1   force =     0.00000000    0.00000000    0.00000000
     atom   12 type  1   force =     0.00000000    0.00000000    0.00000000
     atom   13 type  1   force =     0.00000000    0.00000000    0.00000000
     atom   14 type  1   force =     0.00000000    0.00000000    0.00000000
     atom   15 type  1   force =     0.00000000    0.00000000    0.00000000
     atom   16 type  1   force =     0.00000000    0.00000000    0.00000000
     atom   17 type  2   force =     0.00000000    0.00000000    0.00000000
     atom   18 type  2   force =     0.00000000    0.00000000    0.00000000
     atom   19 type  1   force =     0.00000000    0.00000000    0.00000000
     atom   20 type  1   force =     0.00000000    0.00000000    0.00000000
     atom   21 type  2   force =     0.00000000    0.00000000    0.00000000
     atom   22 type  2   force =     0.00000000    0.00000000    0.00000000
     atom   23 type  1   force =     0.00000000    0.00000000    0.00000000
     atom   24 type  1   force =     0.00000000    0.00000000    0.00000000
     atom   25 type  1   force =     0.00000000    0.00000000    0.00000000
     atom   26 type  1   force =     0.00000000    0.00000000    0.00000000
     atom   27 type  1   force =     0.00000000    0.00000000    0.00000000
     atom   28 type  1   force =     0.00000000    0.00000000    0.00000000
     atom   29 type  2   force =     0.00000000    0.00000000    0.00000000
     atom   30 type  2   force =     0.00000000    0.00000000    0.00000000
     atom   31 type  1   force =     0.00000000    0.00000000    0.00000000
     atom   32 type  1   force =     0.00000000    0.00000000    0.00000000
     atom   33 type  2   force =     0.00000000    0.00000000    0.00000000
     atom   34 type  2   force =     0.00000000    0.00000000    0.00000000
     atom   35 type  1   force =     0.00000000    0.00000000    0.00000000
     atom   36 type  1   force =     0.00000000    0.00000000    0.00000000
     atom   37 type  1   force =     0.00000000    0.00000000    0.00000000
     atom   38 type  1   force =     0.00000000    0.00000000    0.00000000
     atom   39 type  1   force =     0.00000000    0.00000000    0.00000000
     atom   40 type  1   force =     0.00000000    0.00000000    0.00000000
     atom   41 type  3   force =     0.00000000    0.00000000    0.00000000
     atom   42 type  3   force =     0.00000000    0.00000000    0.00000000
     atom   43 type  3   force =     0.00000000    0.00000000    0.00000000
     atom   44 type  3   force =     0.00000000    0.00000000    0.00000000
     The SCF correction term to forces
     atom    1 type  1   force =     0.00000077    0.00000024    0.00000121
     atom    2 type  1   force =    -0.00000077    0.00000023    0.00000096
     atom    3 type  1   force =     0.00000068   -0.00000021    0.00000115
     atom    4 type  1   force =    -0.00000069   -0.00000020    0.00000131
     atom    5 type  2   force =    -0.00000094   -0.00000044    0.00000265
     atom    6 type  2   force =     0.00000093   -0.00000023    0.00000327
     atom    7 type  1   force =    -0.00000049   -0.00000046    0.00000117
     atom    8 type  1   force =     0.00000055   -0.00000038    0.00000153
     atom    9 type  2   force =     0.00000141    0.00000025    0.00000328
     atom   10 type  2   force =    -0.00000150    0.00000063    0.00000414
     atom   11 type  1   force =    -0.00000037    0.00000055    0.00000097
     atom   12 type  1   force =     0.00000044    0.00000039    0.00000148
     atom   13 type  1   force =     0.00000039   -0.00000005    0.00000059
     atom   14 type  1   force =    -0.00000047   -0.00000002    0.00000088
     atom   15 type  1   force =     0.00000032    0.00000001    0.00000078
     atom   16 type  1   force =    -0.00000017   -0.00000003    0.00000117
     atom   17 type  2   force =     0.00000054   -0.00000023   -0.00000001
     atom   18 type  2   force =    -0.00000019    0.00000006   -0.00000002
     atom   19 type  1   force =    -0.00000010    0.00000026   -0.00000001
     atom   20 type  1   force =    -0.00000004    0.00000020   -0.00000001
     atom   21 type  2   force =    -0.00000059   -0.00000024   -0.00000001
     atom   22 type  2   force =    -0.00000002   -0.00000012   -0.00000001
     atom   23 type  1   force =    -0.00000024   -0.00000009   -0.00000001
     atom   24 type  1   force =     0.00000006   -0.00000008   -0.00000001
     atom   25 type  1   force =     0.00000032    0.00000001   -0.00000079
     atom   26 type  1   force =    -0.00000017   -0.00000003   -0.00000118
     atom   27 type  1   force =     0.00000039   -0.00000005   -0.00000060
     atom   28 type  1   force =    -0.00000047   -0.00000002   -0.00000089
     atom   29 type  2   force =    -0.00000095   -0.00000044   -0.00000266
     atom   30 type  2   force =     0.00000093   -0.00000023   -0.00000329
     atom   31 type  1   force =    -0.00000049   -0.00000046   -0.00000118
     atom   32 type  1   force =     0.00000055   -0.00000038   -0.00000153
     atom   33 type  2   force =     0.00000141    0.00000025   -0.00000330
     atom   34 type  2   force =    -0.00000150    0.00000063   -0.00000415
     atom   35 type  1   force =    -0.00000037    0.00000055   -0.00000098
     atom   36 type  1   force =     0.00000045    0.00000039   -0.00000148
     atom   37 type  1   force =     0.00000068   -0.00000021   -0.00000115
     atom   38 type  1   force =    -0.00000069   -0.00000020   -0.00000131
     atom   39 type  1   force =     0.00000077    0.00000025   -0.00000121
     atom   40 type  1   force =    -0.00000077    0.00000023   -0.00000095
     atom   41 type  3   force =     0.00000002    0.00000004    0.00000017
     atom   42 type  3   force =     0.00000002    0.00000004   -0.00000017
     atom   43 type  3   force =     0.00000008   -0.00000009    0.00000020
     atom   44 type  3   force =     0.00000008   -0.00000009   -0.00000020

     Total force =     0.000379     Total SCF correction =     0.000012
     Energy error            =      1.3E-07 Ry
     Gradient error          =      9.9E-05 Ry/Bohr

     bfgs converged in  32 scf cycles and  31 bfgs steps
     (criteria: energy <  1.0E-04 Ry, force <  1.0E-04 Ry/Bohr)

     End of BFGS Geometry Optimization

     Final energy             =   -3432.5888081211 Ry

     File /storage/home/mgm6007/ixd4/Maria/Strain1_Files/RuO2-110-0-02/RuO2-110-0-02.bfgs deleted, as requested
Begin final coordinates

ATOMIC_POSITIONS (crystal)
O            -0.0059552856        0.4451196342        0.2710849798
O             0.4988680839        0.4899619127        0.2736071090
O             0.0000722436        0.0071852438        0.2997516892
O             0.5002189301       -0.0004845474        0.3077990101
Ru            0.2576792015       -0.0007599221        0.3562027806
Ru            0.7427658302       -0.0007602223        0.3561767428
O             0.2509232317        0.3121780597        0.3628730853
O             0.7506765382        0.3113024180        0.3612200474
Ru           -0.0006212150        0.4978154262        0.3586255498
Ru            0.5003501930        0.4980358156        0.3511002108
O             0.2430502619        0.6868222938        0.3548632013
O             0.7569632505        0.6859109896        0.3560655577
O            -0.0000262180       -0.0016658565        0.4114920491
O             0.5001665024       -0.0048298036        0.4117245553
O             0.0052880878        0.5048246518        0.4467693697
O             0.5045252680        0.5071869867        0.4437383351
Ru            0.0002982819        0.0031236732        0.5000010000
Ru            0.5003964373        0.0036127907        0.5000010000
O             0.2496835115        0.1902085706        0.5000010000
O             0.7492347284        0.1901464355        0.5000010000
Ru            0.2569027533        0.5041436964        0.5000010000
Ru            0.7518106818        0.5043134526        0.5000010000
O             0.2497059570        0.8178901662        0.5000010000
O             0.7497872667        0.8176871044        0.5000010000
O             0.0052880878        0.5048246518        0.5532316303
O             0.5045252680        0.5071869867        0.5562626649
O            -0.0000262180       -0.0016658565        0.5885089509
O             0.5001665024       -0.0048298036        0.5882764447
Ru            0.2576792015       -0.0007599221        0.6437982194
Ru            0.7427658302       -0.0007602223        0.6438242572
O             0.2509232317        0.3121780597        0.6371279147
O             0.7506765382        0.3113024180        0.6387809526
Ru           -0.0006212150        0.4978154262        0.6413754502
Ru            0.5003501930        0.4980358156        0.6489007892
O             0.2430502619        0.6868222938        0.6451377987
O             0.7569632505        0.6859109896        0.6439354423
O             0.0000722436        0.0071852438        0.7002503108
O             0.5002189301       -0.0004845474        0.6922029899
O            -0.0059552856        0.4451196342        0.7289160202
O             0.4988680839        0.4899619127        0.7263938910
H             0.1094865772        0.5096116864        0.2490482408
H             0.1094865772        0.5096116864        0.7509517592
H            -0.0007062904        0.1511992888        0.2758758281
H            -0.0007062904        0.1511992888        0.7241241719
End final coordinates



     Writing all to output data dir /storage/home/mgm6007/ixd4/Maria/Strain1_Files/RuO2-110-0-02/RuO2-110-0-02.save/
 
     init_run     :    110.47s CPU   2744.51s WALL (       1 calls)
     electrons    :  32738.80s CPU 178841.60s WALL (      32 calls)
     update_pot   :     52.35s CPU     52.40s WALL (      31 calls)
     forces       :     58.05s CPU     58.23s WALL (      32 calls)

     Called by init_run:
     wfcinit      :      0.97s CPU      0.97s WALL (       1 calls)
     potinit      :     75.67s CPU   2060.43s WALL (       1 calls)
     hinit0       :     33.38s CPU    682.56s WALL (       1 calls)

     Called by electrons:
     c_bands      :   1372.09s CPU   1372.93s WALL (     554 calls)
     sum_band     :    245.07s CPU    245.26s WALL (     554 calls)
     v_of_rho     :     59.07s CPU     59.26s WALL (     555 calls)
     newd         :     36.00s CPU     36.04s WALL (     555 calls)
     PAW_pot      :     67.13s CPU     67.14s WALL (     586 calls)
     mix_rho      :    400.14s CPU    400.32s WALL (     554 calls)

     Called by c_bands:
     init_us_2    :     15.71s CPU     15.78s WALL (    2344 calls)
     init_us_2:cp :     15.70s CPU     15.77s WALL (    2344 calls)
     cegterg      :   1313.67s CPU   1314.37s WALL (    1108 calls)

     Called by *egterg:
     cdiaghg      :    157.58s CPU    157.61s WALL (    3166 calls)
     h_psi        :    675.82s CPU    676.22s WALL (    3292 calls)
     s_psi        :    105.31s CPU    105.40s WALL (    3292 calls)
     g_psi        :      3.48s CPU      3.48s WALL (    2182 calls)

     Called by h_psi:
     h_psi:calbec :    109.10s CPU    109.14s WALL (    3292 calls)
     vloc_psi     :    451.64s CPU    451.91s WALL (    3292 calls)
     add_vuspsi   :    106.59s CPU    106.68s WALL (    3292 calls)

     General routines
     calbec       :    172.94s CPU    173.02s WALL (    4718 calls)
     fft          :   6589.04s CPU   6589.74s WALL (    7565 calls)
     ffts         :    144.27s CPU    144.24s WALL (  228282 calls)
     fftw         :    419.02s CPU    419.14s WALL ( 1284816 calls)
     interpolate  :   6545.85s CPU   6546.56s WALL (     555 calls)
 
     Parallel routines
 
     Environ routines
 
     PWSCF        :      9h38m CPU   2d 5h12m WALL

 
   This run was terminated on:  21:19:38  20Jul2023            

=------------------------------------------------------------------------------=
   JOB DONE.
=------------------------------------------------------------------------------=
