
     Program PWSCF v.7.2 starts on 26Jul2023 at 11:22:51 
        Git branch: heads/qe-7.2
        Last git commit: b4c5e8deeb7d1863e7553a87b45f8d22c21926a5
        Last git commit date: Mon Mar 27 16:12:09 2023 +0000
        Last git commit subject: Merge branch 'merge_fix_hubbard' into 'develop'

     This program is part of the open-source Quantum ESPRESSO suite
     for quantum simulation of materials; please cite
         "P. Giannozzi et al., J. Phys.:Condens. Matter 21 395502 (2009);
         "P. Giannozzi et al., J. Phys.:Condens. Matter 29 465901 (2017);
         "P. Giannozzi et al., J. Chem. Phys. 152 154105 (2020);
          URL http://www.quantum-espresso.org", 
     in publications or presentations arising from this work. More details at
     http://www.quantum-espresso.org/quote

     Parallel version (MPI), running on    20 processors

     MPI processes distributed on     1 nodes
     103794 MiB available memory on the printing compute node when the environment starts
 
     Reading input from RuO2-110-0-2345.in

     Current dimensions of program PWSCF are:
     Max number of different atomic species (ntypx) = 10
     Max number of k-points (npk) =  40000
     Max angular momentum in pseudopotentials (lmaxx) =  4
 
     Reading input from environ.in:
     * Environ restarting
     * setting up water environment
     * using electronic solvent mode
     * setting boundary derivatives method to SCCS default
     
     file O.pbe-n-kjpaw_psl.0.1.UPF: wavefunction(s)  2P renormalized
     Found identity + ( -0.5000  0.0000  0.0000) symmetry
     This is a supercell, fractional translations are disabled
     Message from routine setup:
     using ibrav=0 with symmetry is DISCOURAGED, use correct ibrav instead
 
     R & G space division:  proc/nbgrp/npool/nimage =      20
     Subspace diagonalization in iterative solution of the eigenvalue problem:
     one sub-group per band group will be used
     scalapack distributed-memory algorithm (size of sub-group:  2*  2 procs)

 
     Parallelization info
     --------------------
     sticks:   dense  smooth     PW     G-vecs:    dense   smooth      PW
     Min         276     110     29                54982    13912    1877
     Max         277     111     30                54993    13923    1888
     Sum        5537    2217    585              1099789   278381   37601
 
     Using Slab Decomposition
 


     bravais-lattice index     =            0
     lattice parameter (alat)  =      12.3824  a.u.
     unit-cell volume          =    5825.9133 (a.u.)^3
     number of atoms/cell      =           48
     number of atomic types    =            3
     number of electrons       =       368.00
     number of Kohn-Sham states=          221
     kinetic-energy cutoff     =      50.0000  Ry
     charge density cutoff     =     500.0000  Ry
     scf convergence threshold =      1.0E-09
     mixing beta               =       0.7000
     number of iterations used =            8  local-TF  mixing
     energy convergence thresh.=      1.0E-04
     force convergence thresh. =      1.0E-04
     Exchange-correlation= PBE
                           (   1   4   3   4   0   0   0)
     nstep                     =          200


     ================================================================================
 
                                  Environ Setup Summary

     ================================================================================
 
     Please cite

          O. Andreussi, I. Dabo and N. Marzari, J. Chem. Phys. 136, 064102 (2012)

     in publications or presentations arising from this work.

     ================================================================================
 
     Parameters
     ==========

     compensation onset threshold      =               0.1000E+00
     static permittivity               =                    78.30
     surface tension in input (dyn/cm) =                    47.90
     surface tension in internal units =               0.6153E-04
     external pressure in input (GPa)  =                    -0.36
     external pressure in inter. units =              -0.2447E-04

     Solvent Boundary
     ================

     solvent mode                      =               electronic
     derivatives method                =                    chain
     numerical core for derivatives    =                      fft
     switching function adopted        =                     SCCS
     density limit for vacuum region   =               0.5000E-02
     density limit for bulk solvent    =               0.1000E-03

     Electrostatic Setup
     ===================

     electrostatic problem to solve    =              generalized
     numerical solver adopted          =                       cg
     type of auxiliary density adopted =                     none
     numerical core for poisson        =                      fft
     type of pbc corrections           =                parabolic
     numerical core for corrections    =                      1da

     ================================================================================
 

     celldm(1)=  12.382447  celldm(2)=   0.000000  celldm(3)=   0.000000
     celldm(4)=   0.000000  celldm(5)=   0.000000  celldm(6)=   0.000000

     crystal axes: (cart. coord. in units of alat)
               a(1) = (   1.000000   0.000000   0.000000 )  
               a(2) = (   0.000000   0.908473   0.000000 )  
               a(3) = (   0.000000   0.000000   3.377790 )  

     reciprocal axes: (cart. coord. in units 2 pi/alat)
               b(1) = (  1.000000  0.000000  0.000000 )  
               b(2) = (  0.000000  1.100748  0.000000 )  
               b(3) = (  0.000000  0.000000  0.296052 )  


     PseudoPot. # 1 for O  read from file:
     /gpfs/group/ixd4/default/Simon/pseudopotentials/materialscloud/SSSP_1.3.0_PBE_efficiency/O.pbe-n-kjpaw_psl.0.1.UPF
     MD5 check sum: 0234752ac141de4415c5fc33072bef88
     Pseudo is Projector augmented-wave + core cor, Zval =  6.0
     Generated using "atomic" code by A. Dal Corso  v.5.0.99 svn rev. 10869
     Shape of augmentation charge: BESSEL
     Using radial grid of 1095 points,  4 beta functions with: 
                l(1) =   0
                l(2) =   0
                l(3) =   1
                l(4) =   1
     Q(r) pseudized with 0 coefficients 


     PseudoPot. # 2 for Ru read from file:
     /gpfs/group/ixd4/default/Simon/pseudopotentials/materialscloud/SSSP_1.3.0_PBE_efficiency/Ru_ONCV_PBE-1.0.oncvpsp.upf
     MD5 check sum: be037bb81c227cfb9b1461a9f099f4bd
     Pseudo is Norm-conserving, Zval = 16.0
     Generated using ONCVPSP code by D. R. Hamann
     Using radial grid of 1458 points,  6 beta functions with: 
                l(1) =   0
                l(2) =   0
                l(3) =   1
                l(4) =   1
                l(5) =   2
                l(6) =   2

     PseudoPot. # 3 for H  read from file:
     /gpfs/group/ixd4/default/Simon/pseudopotentials/materialscloud/SSSP_1.3.0_PBE_efficiency/H.pbe-rrkjus_psl.1.0.0.UPF
     MD5 check sum: f52b6d4d1c606e5624b1dc7b2218f220
     Pseudo is Ultrasoft, Zval =  1.0
     Generated using "atomic" code by A. Dal Corso  v.5.1
     Using radial grid of  929 points,  2 beta functions with: 
                l(1) =   0
                l(2) =   0
     Q(r) pseudized with 0 coefficients 


     atomic species   valence    mass     pseudopotential
        O              6.00    15.99940     O ( 1.00)
        Ru            16.00   101.07000     Ru( 1.00)
        H              1.00     1.00794     H ( 1.00)

      8 Sym. Ops., with inversion, found



   Cartesian axes

     site n.     atom                  positions (alat units)
         1           O   tau(   1) = (   0.0000000   0.4542364   0.9159496  )
         2           O   tau(   2) = (   0.5000000   0.4542364   0.9159509  )
         3           O   tau(   3) = (   0.0000000   0.0000000   0.9731241  )
         4           O   tau(   4) = (   0.5000000   0.0000000   0.9731241  )
         5           Ru  tau(   5) = (   0.2500000   0.0000000   1.2190012  )
         6           Ru  tau(   6) = (   0.7500000   0.0000000   1.2190012  )
         7           O   tau(   7) = (   0.2500002   0.2746731   1.2013053  )
         8           O   tau(   8) = (   0.7499998   0.2746731   1.2013053  )
         9           Ru  tau(   9) = (   0.0000000   0.4542364   1.1864348  )
        10           Ru  tau(  10) = (   0.5000000   0.4542364   1.1864360  )
        11           O   tau(  11) = (   0.2500002   0.6337998   1.2013053  )
        12           O   tau(  12) = (   0.7499998   0.6337998   1.2013053  )
        13           O   tau(  13) = (   0.0000000   0.0000000   1.3950298  )
        14           O   tau(  14) = (   0.5000000   0.0000000   1.3950299  )
        15           O   tau(  15) = (   0.0000000   0.4542364   1.4963770  )
        16           O   tau(  16) = (   0.5000000   0.4542364   1.4963851  )
        17           Ru  tau(  17) = (   0.0000000   0.0000000   1.6888985  )
        18           Ru  tau(  18) = (   0.5000000   0.0000000   1.6888985  )
        19           O   tau(  19) = (   0.2499995   0.1775505   1.6888985  )
        20           O   tau(  20) = (   0.7500005   0.1775505   1.6888985  )
        21           Ru  tau(  21) = (   0.2499972   0.4542364   1.6888985  )
        22           Ru  tau(  22) = (   0.7500028   0.4542364   1.6888985  )
        23           O   tau(  23) = (   0.2499995   0.7309232   1.6888985  )
        24           O   tau(  24) = (   0.7500005   0.7309232   1.6888985  )
        25           O   tau(  25) = (   0.0000000   0.4542364   1.8814167  )
        26           O   tau(  26) = (   0.5000000   0.4542364   1.8814086  )
        27           O   tau(  27) = (   0.0000000   0.0000000   1.9827639  )
        28           O   tau(  28) = (   0.5000000   0.0000000   1.9827638  )
        29           Ru  tau(  29) = (   0.2500000   0.0000000   2.1587925  )
        30           Ru  tau(  30) = (   0.7500000   0.0000000   2.1587925  )
        31           O   tau(  31) = (   0.2500002   0.2746731   2.1764884  )
        32           O   tau(  32) = (   0.7499998   0.2746731   2.1764884  )
        33           Ru  tau(  33) = (   0.0000000   0.4542364   2.1913589  )
        34           Ru  tau(  34) = (   0.5000000   0.4542364   2.1913577  )
        35           O   tau(  35) = (   0.2500002   0.6337998   2.1764884  )
        36           O   tau(  36) = (   0.7499998   0.6337998   2.1764884  )
        37           O   tau(  37) = (   0.0000000   0.0000000   2.4046730  )
        38           O   tau(  38) = (   0.5000000   0.0000000   2.4046730  )
        39           O   tau(  39) = (   0.0000000   0.4542364   2.4618441  )
        40           O   tau(  40) = (   0.5000000   0.4542364   2.4618428  )
        41           H   tau(  41) = (   0.0000000   0.1106537   0.8864984  )
        42           H   tau(  42) = (   0.0000000   0.1106537   2.4912919  )
        43           H   tau(  43) = (   0.5000000   0.1106537   0.8864984  )
        44           H   tau(  44) = (   0.5000000   0.1106537   2.4912919  )
        45           H   tau(  45) = (   0.0000000   0.7978191   0.8864984  )
        46           H   tau(  46) = (   0.0000000   0.7978191   2.4912919  )
        47           H   tau(  47) = (   0.5000000   0.7978191   0.8864984  )
        48           H   tau(  48) = (   0.5000000   0.7978191   2.4912919  )

     number of k points=     1  Marzari-Vanderbilt smearing, width (Ry)=  0.0300
                       cart. coord. in units 2pi/alat
        k(    1) = (   0.2500000   0.2751871   0.0000000), wk =   2.0000000

     Dense  grid:  1099789 G-vectors     FFT dimensions: (  90,  81, 300)

     Smooth grid:   278381 G-vectors     FFT dimensions: (  60,  54, 192)

     Estimated max dynamical RAM per process >     168.80 MB

     Estimated total dynamical RAM >       3.30 GB

     Check: negative core charge=   -0.000001

     Initial potential from superposition of free atoms

     starting charge     367.9933, renormalised to     368.0000

     add environment contribution to local potential
     Polarization accuracy = 3.4E-12, # of iterations =  21

     negative rho (up, down):  2.887E-05 0.000E+00
     Starting wfcs are  240 randomized atomic wfcs
     Checking if some PAW data can be deallocated... 

     total cpu time spent up to now is      740.6 secs

     per-process dynamical memory:   138.3 Mb

     Self-consistent Calculation

     iteration #  1     ecut=    50.00 Ry     beta= 0.70
     Davidson diagonalization with overlap
     ethr =  1.00E-02,  avg # of iterations =  4.0

     total cpu time spent up to now is     1029.1 secs

     total energy              =   -3435.01543173 Ry
     estimated scf accuracy    <      10.28689885 Ry
     electrostatic embedding   =      -0.00167873 Ry
     cavitation energy         =       0.01893046 Ry
     PV energy                 =      -0.08619609 Ry
     correction to one-el term =     223.97448840 Ry

     iteration #  2     ecut=    50.00 Ry     beta= 0.70
     Davidson diagonalization with overlap
     ethr =  2.80E-03,  avg # of iterations =  2.0

     total cpu time spent up to now is     1281.3 secs

     total energy              =   -3436.99239577 Ry
     estimated scf accuracy    <       3.49427301 Ry
     electrostatic embedding   =      -0.00293971 Ry
     cavitation energy         =       0.01885591 Ry
     PV energy                 =      -0.08731349 Ry
     correction to one-el term =     223.97824578 Ry

     iteration #  3     ecut=    50.00 Ry     beta= 0.70
     Davidson diagonalization with overlap
     ethr =  9.50E-04,  avg # of iterations =  1.0

     total cpu time spent up to now is     1550.9 secs

     total energy              =   -3437.20959641 Ry
     estimated scf accuracy    <       0.48320152 Ry
     electrostatic embedding   =      -0.00355336 Ry
     cavitation energy         =       0.01878873 Ry
     PV energy                 =      -0.08789428 Ry
     correction to one-el term =     223.98009213 Ry

     iteration #  4     ecut=    50.00 Ry     beta= 0.70
     Davidson diagonalization with overlap
     ethr =  1.31E-04,  avg # of iterations =  5.0

     total cpu time spent up to now is     1793.1 secs

     total energy              =   -3437.25536431 Ry
     estimated scf accuracy    <       1.52153144 Ry
     electrostatic embedding   =      -0.00393263 Ry
     cavitation energy         =       0.01899752 Ry
     PV energy                 =      -0.08762949 Ry
     correction to one-el term =     223.98072587 Ry

     iteration #  5     ecut=    50.00 Ry     beta= 0.70
     Davidson diagonalization with overlap
     ethr =  1.31E-04,  avg # of iterations =  1.0

     total cpu time spent up to now is    14924.6 secs

     total energy              =   -3437.21239810 Ry
     estimated scf accuracy    <       0.85900062 Ry
     electrostatic embedding   =      -0.00419338 Ry
     cavitation energy         =       0.01915615 Ry
     PV energy                 =      -0.08747115 Ry
     correction to one-el term =     223.98122076 Ry

     iteration #  6     ecut=    50.00 Ry     beta= 0.70
     Davidson diagonalization with overlap
     ethr =  1.31E-04,  avg # of iterations =  2.0

     total cpu time spent up to now is    15257.3 secs

     total energy              =   -3437.19494981 Ry
     estimated scf accuracy    <       0.50261490 Ry
     electrostatic embedding   =      -0.00456304 Ry
     cavitation energy         =       0.01978353 Ry
     PV energy                 =      -0.08621930 Ry
     correction to one-el term =     223.98147074 Ry

     iteration #  7     ecut=    50.00 Ry     beta= 0.70
     Davidson diagonalization with overlap
     ethr =  1.31E-04,  avg # of iterations =  2.0

     total cpu time spent up to now is    15573.1 secs

     total energy              =   -3437.18825308 Ry
     estimated scf accuracy    <       0.25676408 Ry
     electrostatic embedding   =      -0.00458431 Ry
     cavitation energy         =       0.02019971 Ry
     PV energy                 =      -0.08511751 Ry
     correction to one-el term =     223.98108352 Ry

     iteration #  8     ecut=    50.00 Ry     beta= 0.70
     Davidson diagonalization with overlap
     ethr =  6.98E-05,  avg # of iterations =  8.0

     add environment contribution to local potential
     Polarization accuracy = 4.6E-12, # of iterations =  37

     total cpu time spent up to now is    15903.4 secs

     total energy              =   -3437.18145295 Ry
     estimated scf accuracy    <       0.09274927 Ry
     electrostatic embedding   =      -0.00444856 Ry
     cavitation energy         =       0.02069548 Ry
     PV energy                 =      -0.08368939 Ry
     correction to one-el term =     223.98022421 Ry

     iteration #  9     ecut=    50.00 Ry     beta= 0.70
     Davidson diagonalization with overlap
     ethr =  2.52E-05,  avg # of iterations = 10.0

     total cpu time spent up to now is    16160.8 secs

     total energy              =   -3437.26473325 Ry
     estimated scf accuracy    <       0.54886457 Ry
     electrostatic embedding   =      -0.09598642 Ry
     cavitation energy         =       0.02100804 Ry
     PV energy                 =      -0.08242556 Ry
     correction to one-el term =     166.26174770 Ry

     iteration # 10     ecut=    50.00 Ry     beta= 0.70
     Davidson diagonalization with overlap
     ethr =  2.52E-05,  avg # of iterations =  1.0

     total cpu time spent up to now is    16486.9 secs

     total energy              =   -3437.24556023 Ry
     estimated scf accuracy    <       0.20933429 Ry
     electrostatic embedding   =      -0.09703552 Ry
     cavitation energy         =       0.02101353 Ry
     PV energy                 =      -0.08224813 Ry
     correction to one-el term =     166.26510527 Ry

     iteration # 11     ecut=    50.00 Ry     beta= 0.70
     Davidson diagonalization with overlap
     ethr =  2.52E-05,  avg # of iterations =  2.0

     add environment contribution to local potential
     Polarization accuracy = 1.0E-11, # of iterations =  36

     total cpu time spent up to now is    16818.5 secs

     total energy              =   -3437.24643823 Ry
     estimated scf accuracy    <       0.01806906 Ry
     electrostatic embedding   =      -0.10004468 Ry
     cavitation energy         =       0.02083381 Ry
     PV energy                 =      -0.08213878 Ry
     correction to one-el term =     166.27438361 Ry

     iteration # 12     ecut=    50.00 Ry     beta= 0.70
     Davidson diagonalization with overlap
     ethr =  4.91E-06,  avg # of iterations =  4.0

     negative rho (up, down):  3.639E-05 0.000E+00

     add environment contribution to local potential
     Polarization accuracy = 3.0E-12, # of iterations =  40

     total cpu time spent up to now is    17034.7 secs

     total energy              =   -3437.25823591 Ry
     estimated scf accuracy    <       0.00839570 Ry
     electrostatic embedding   =      -0.11130415 Ry
     cavitation energy         =       0.02066407 Ry
     PV energy                 =      -0.08218779 Ry
     correction to one-el term =     166.94009690 Ry

     iteration # 13     ecut=    50.00 Ry     beta= 0.70
     Davidson diagonalization with overlap
     ethr =  2.28E-06,  avg # of iterations =  5.0

     negative rho (up, down):  4.187E-04 0.000E+00

     add environment contribution to local potential
     Polarization accuracy = 2.8E-12, # of iterations =  39

     total cpu time spent up to now is    17336.9 secs

     total energy              =   -3437.26048607 Ry
     estimated scf accuracy    <       0.01724654 Ry
     electrostatic embedding   =      -0.11815852 Ry
     cavitation energy         =       0.02055311 Ry
     PV energy                 =      -0.08216620 Ry
     correction to one-el term =     167.65835510 Ry

     iteration # 14     ecut=    50.00 Ry     beta= 0.70
     Davidson diagonalization with overlap
     ethr =  2.28E-06,  avg # of iterations =  5.0

     negative rho (up, down):  9.754E-08 0.000E+00

     add environment contribution to local potential
     Polarization accuracy = 7.5E-12, # of iterations =  36

     total cpu time spent up to now is    17618.7 secs

     total energy              =   -3437.26086653 Ry
     estimated scf accuracy    <       0.01719269 Ry
     electrostatic embedding   =      -0.12075026 Ry
     cavitation energy         =       0.02046886 Ry
     PV energy                 =      -0.08223074 Ry
     correction to one-el term =     168.49166398 Ry

     iteration # 15     ecut=    50.00 Ry     beta= 0.70
     Davidson diagonalization with overlap
     ethr =  2.28E-06,  avg # of iterations =  5.0

     negative rho (up, down):  3.536E-08 0.000E+00

     add environment contribution to local potential
     Polarization accuracy = 2.1E-12, # of iterations =  36

     total cpu time spent up to now is    17901.7 secs

     total energy              =   -3437.26181828 Ry
     estimated scf accuracy    <       0.00874257 Ry
     electrostatic embedding   =      -0.11408921 Ry
     cavitation energy         =       0.02033297 Ry
     PV energy                 =      -0.08248501 Ry
     correction to one-el term =     170.39693724 Ry

     iteration # 16     ecut=    50.00 Ry     beta= 0.70
     Davidson diagonalization with overlap
     ethr =  2.28E-06,  avg # of iterations =  5.0

     negative rho (up, down):  1.670E-06 0.000E+00

     add environment contribution to local potential
     Polarization accuracy = 8.6E-12, # of iterations =  35

     total cpu time spent up to now is    18158.4 secs

     total energy              =   -3437.26287389 Ry
     estimated scf accuracy    <       0.00135730 Ry
     electrostatic embedding   =      -0.10861512 Ry
     cavitation energy         =       0.02030173 Ry
     PV energy                 =      -0.08259930 Ry
     correction to one-el term =     171.54295076 Ry

     iteration # 17     ecut=    50.00 Ry     beta= 0.70
     Davidson diagonalization with overlap
     ethr =  3.69E-07,  avg # of iterations =  7.0

     negative rho (up, down):  4.380E-04 0.000E+00

     add environment contribution to local potential
     Polarization accuracy = 7.2E-12, # of iterations =  35

     total cpu time spent up to now is    18406.3 secs

     total energy              =   -3437.26298504 Ry
     estimated scf accuracy    <       0.00055429 Ry
     electrostatic embedding   =      -0.10721800 Ry
     cavitation energy         =       0.02027504 Ry
     PV energy                 =      -0.08262500 Ry
     correction to one-el term =     172.09733353 Ry

     iteration # 18     ecut=    50.00 Ry     beta= 0.70
     Davidson diagonalization with overlap
     ethr =  1.51E-07,  avg # of iterations = 11.0

     negative rho (up, down):  7.787E-04 0.000E+00

     add environment contribution to local potential
     Polarization accuracy = 7.0E-12, # of iterations =  35

     total cpu time spent up to now is    18653.1 secs

     total energy              =   -3437.26306328 Ry
     estimated scf accuracy    <       0.00011749 Ry
     electrostatic embedding   =      -0.10585469 Ry
     cavitation energy         =       0.02026088 Ry
     PV energy                 =      -0.08262101 Ry
     correction to one-el term =     172.59329739 Ry

     iteration # 19     ecut=    50.00 Ry     beta= 0.70
     Davidson diagonalization with overlap
     ethr =  3.19E-08,  avg # of iterations =  2.0

     negative rho (up, down):  8.323E-04 0.000E+00

     add environment contribution to local potential
     Polarization accuracy = 7.5E-12, # of iterations =  35

     total cpu time spent up to now is    18957.1 secs

     total energy              =   -3437.26308247 Ry
     estimated scf accuracy    <       0.00005340 Ry
     electrostatic embedding   =      -0.10508869 Ry
     cavitation energy         =       0.02026307 Ry
     PV energy                 =      -0.08261606 Ry
     correction to one-el term =     172.72649989 Ry

     iteration # 20     ecut=    50.00 Ry     beta= 0.70
     Davidson diagonalization with overlap
     ethr =  1.45E-08,  avg # of iterations =  2.0

     negative rho (up, down):  7.228E-04 0.000E+00

     add environment contribution to local potential
     Polarization accuracy = 7.8E-12, # of iterations =  35

     total cpu time spent up to now is    19246.6 secs

     total energy              =   -3437.26309413 Ry
     estimated scf accuracy    <       0.00001250 Ry
     electrostatic embedding   =      -0.10441818 Ry
     cavitation energy         =       0.02026742 Ry
     PV energy                 =      -0.08260532 Ry
     correction to one-el term =     172.83791464 Ry

     iteration # 21     ecut=    50.00 Ry     beta= 0.70
     Davidson diagonalization with overlap
     ethr =  3.40E-09,  avg # of iterations =  2.0

     negative rho (up, down):  2.757E-04 0.000E+00

     add environment contribution to local potential
     Polarization accuracy = 8.5E-12, # of iterations =  35

     total cpu time spent up to now is    19547.3 secs

     total energy              =   -3437.26309565 Ry
     estimated scf accuracy    <       0.00000649 Ry
     electrostatic embedding   =      -0.10409148 Ry
     cavitation energy         =       0.02026981 Ry
     PV energy                 =      -0.08259467 Ry
     correction to one-el term =     172.90696514 Ry

     iteration # 22     ecut=    50.00 Ry     beta= 0.70
     Davidson diagonalization with overlap
     ethr =  1.76E-09,  avg # of iterations =  2.0

     negative rho (up, down):  6.474E-05 0.000E+00

     add environment contribution to local potential
     Polarization accuracy = 8.8E-12, # of iterations =  35

     total cpu time spent up to now is    19857.7 secs

     total energy              =   -3437.26309753 Ry
     estimated scf accuracy    <       0.00000164 Ry
     electrostatic embedding   =      -0.10390620 Ry
     cavitation energy         =       0.02027441 Ry
     PV energy                 =      -0.08257751 Ry
     correction to one-el term =     172.93582617 Ry

     iteration # 23     ecut=    50.00 Ry     beta= 0.70
     Davidson diagonalization with overlap
     ethr =  4.46E-10,  avg # of iterations =  2.0

     negative rho (up, down):  7.970E-05 0.000E+00

     add environment contribution to local potential
     Polarization accuracy = 8.8E-12, # of iterations =  35

     total cpu time spent up to now is    20153.7 secs

     total energy              =   -3437.26309791 Ry
     estimated scf accuracy    <       0.00000114 Ry
     electrostatic embedding   =      -0.10380377 Ry
     cavitation energy         =       0.02027606 Ry
     PV energy                 =      -0.08257287 Ry
     correction to one-el term =     172.93701366 Ry

     iteration # 24     ecut=    50.00 Ry     beta= 0.70
     Davidson diagonalization with overlap
     ethr =  3.11E-10,  avg # of iterations =  1.0

     negative rho (up, down):  6.825E-05 0.000E+00

     add environment contribution to local potential
     Polarization accuracy = 8.8E-12, # of iterations =  35

     total cpu time spent up to now is    20416.0 secs

     total energy              =   -3437.26309821 Ry
     estimated scf accuracy    <       0.00000021 Ry
     electrostatic embedding   =      -0.10379031 Ry
     cavitation energy         =       0.02027562 Ry
     PV energy                 =      -0.08257079 Ry
     correction to one-el term =     172.94336291 Ry

     iteration # 25     ecut=    50.00 Ry     beta= 0.70
     Davidson diagonalization with overlap
     ethr =  5.59E-11,  avg # of iterations =  2.0

     negative rho (up, down):  8.439E-05 0.000E+00

     add environment contribution to local potential
     Polarization accuracy = 8.7E-12, # of iterations =  35

     total cpu time spent up to now is    20673.2 secs

     total energy              =   -3437.26309836 Ry
     estimated scf accuracy    <       0.00000009 Ry
     electrostatic embedding   =      -0.10377474 Ry
     cavitation energy         =       0.02027561 Ry
     PV energy                 =      -0.08256980 Ry
     correction to one-el term =     172.94448822 Ry

     iteration # 26     ecut=    50.00 Ry     beta= 0.70
     Davidson diagonalization with overlap
     ethr =  2.37E-11,  avg # of iterations =  2.0

     negative rho (up, down):  9.283E-05 0.000E+00

     add environment contribution to local potential
     Polarization accuracy = 9.3E-12, # of iterations =  34

     total cpu time spent up to now is    20922.3 secs

     total energy              =   -3437.26309866 Ry
     estimated scf accuracy    <       0.00000008 Ry
     electrostatic embedding   =      -0.10376346 Ry
     cavitation energy         =       0.02027499 Ry
     PV energy                 =      -0.08257028 Ry
     correction to one-el term =     172.94689999 Ry

     iteration # 27     ecut=    50.00 Ry     beta= 0.70
     Davidson diagonalization with overlap
     ethr =  2.08E-11,  avg # of iterations =  1.0

     negative rho (up, down):  1.108E-04 0.000E+00

     add environment contribution to local potential
     Polarization accuracy = 2.1E-12, # of iterations =  35

     total cpu time spent up to now is    21245.3 secs

     total energy              =   -3437.26309876 Ry
     estimated scf accuracy    <       0.00000008 Ry
     electrostatic embedding   =      -0.10375933 Ry
     cavitation energy         =       0.02027487 Ry
     PV energy                 =      -0.08257069 Ry
     correction to one-el term =     172.94844693 Ry

     iteration # 28     ecut=    50.00 Ry     beta= 0.70
     Davidson diagonalization with overlap
     ethr =  2.04E-11,  avg # of iterations =  2.0

     negative rho (up, down):  1.166E-04 0.000E+00

     add environment contribution to local potential
     Polarization accuracy = 8.0E-12, # of iterations =  35

     total cpu time spent up to now is    21530.7 secs

     total energy              =   -3437.26309930 Ry
     estimated scf accuracy    <       0.00000007 Ry
     electrostatic embedding   =      -0.10373810 Ry
     cavitation energy         =       0.02027448 Ry
     PV energy                 =      -0.08257104 Ry
     correction to one-el term =     172.95330866 Ry

     iteration # 29     ecut=    50.00 Ry     beta= 0.70
     Davidson diagonalization with overlap
     ethr =  1.78E-11,  avg # of iterations =  1.0

     negative rho (up, down):  1.251E-04 0.000E+00

     add environment contribution to local potential
     Polarization accuracy = 8.7E-12, # of iterations =  36

     total cpu time spent up to now is    21821.3 secs

     total energy              =   -3437.26309979 Ry
     estimated scf accuracy    <       0.00000006 Ry
     electrostatic embedding   =      -0.10372860 Ry
     cavitation energy         =       0.02027434 Ry
     PV energy                 =      -0.08257105 Ry
     correction to one-el term =     172.95544183 Ry

     iteration # 30     ecut=    50.00 Ry     beta= 0.70
     Davidson diagonalization with overlap
     ethr =  1.68E-11,  avg # of iterations =  1.0

     negative rho (up, down):  1.262E-04 0.000E+00

     add environment contribution to local potential
     Polarization accuracy = 7.4E-12, # of iterations =  36

     total cpu time spent up to now is    22126.2 secs

     total energy              =   -3437.26310060 Ry
     estimated scf accuracy    <       0.00000005 Ry
     electrostatic embedding   =      -0.10371870 Ry
     cavitation energy         =       0.02027426 Ry
     PV energy                 =      -0.08257122 Ry
     correction to one-el term =     172.95826550 Ry

     iteration # 31     ecut=    50.00 Ry     beta= 0.70
     Davidson diagonalization with overlap
     ethr =  1.47E-11,  avg # of iterations =  5.0

     negative rho (up, down):  1.170E-04 0.000E+00

     add environment contribution to local potential
     Polarization accuracy = 4.4E-12, # of iterations =  35

     total cpu time spent up to now is    22419.0 secs

     total energy              =   -3437.26310335 Ry
     estimated scf accuracy    <       0.00000004 Ry
     electrostatic embedding   =      -0.10371630 Ry
     cavitation energy         =       0.02027426 Ry
     PV energy                 =      -0.08257105 Ry
     correction to one-el term =     172.95954380 Ry

     iteration # 32     ecut=    50.00 Ry     beta= 0.70
     Davidson diagonalization with overlap
     ethr =  1.14E-11,  avg # of iterations =  5.0

     negative rho (up, down):  1.126E-04 0.000E+00

     add environment contribution to local potential
     Polarization accuracy = 3.9E-12, # of iterations =  35

     total cpu time spent up to now is    22681.7 secs

     total energy              =   -3437.26311011 Ry
     estimated scf accuracy    <       0.00000002 Ry
     electrostatic embedding   =      -0.10374088 Ry
     cavitation energy         =       0.02027432 Ry
     PV energy                 =      -0.08257078 Ry
     correction to one-el term =     172.95512485 Ry

     iteration # 33     ecut=    50.00 Ry     beta= 0.70
     Davidson diagonalization with overlap
     ethr =  5.68E-12,  avg # of iterations =  3.0

     negative rho (up, down):  1.107E-04 0.000E+00

     add environment contribution to local potential
     Polarization accuracy = 3.8E-12, # of iterations =  35

     total cpu time spent up to now is    22982.8 secs

     total energy              =   -3437.26311356 Ry
     estimated scf accuracy    <       0.00000001 Ry
     electrostatic embedding   =      -0.10375526 Ry
     cavitation energy         =       0.02027438 Ry
     PV energy                 =      -0.08257066 Ry
     correction to one-el term =     172.95212132 Ry

     iteration # 34     ecut=    50.00 Ry     beta= 0.70
     Davidson diagonalization with overlap
     ethr =  2.84E-12,  avg # of iterations =  5.0

     negative rho (up, down):  1.090E-04 0.000E+00

     add environment contribution to local potential
     Polarization accuracy = 7.8E-12, # of iterations =  35

     total cpu time spent up to now is    23248.7 secs

     total energy              =   -3437.26311487 Ry
     estimated scf accuracy    <          4.3E-09 Ry
     electrostatic embedding   =      -0.10375788 Ry
     cavitation energy         =       0.02027441 Ry
     PV energy                 =      -0.08257064 Ry
     correction to one-el term =     172.95117245 Ry

     iteration # 35     ecut=    50.00 Ry     beta= 0.70
     Davidson diagonalization with overlap
     ethr =  1.16E-12,  avg # of iterations =  5.0

     negative rho (up, down):  1.061E-04 0.000E+00

     add environment contribution to local potential
     Polarization accuracy = 8.1E-12, # of iterations =  34

     total cpu time spent up to now is    23515.2 secs

     total energy              =   -3437.26311581 Ry
     estimated scf accuracy    <          1.7E-09 Ry
     electrostatic embedding   =      -0.10375736 Ry
     cavitation energy         =       0.02027447 Ry
     PV energy                 =      -0.08257062 Ry
     correction to one-el term =     172.95085025 Ry

     iteration # 36     ecut=    50.00 Ry     beta= 0.70
     Davidson diagonalization with overlap
     ethr =  4.53E-13,  avg # of iterations =  2.0

     negative rho (up, down):  1.070E-04 0.000E+00

     add environment contribution to local potential
     Polarization accuracy = 7.7E-12, # of iterations =  34

     total cpu time spent up to now is    23817.8 secs

     total energy              =   -3437.26311631 Ry
     estimated scf accuracy    <          1.0E-09 Ry
     electrostatic embedding   =      -0.10375505 Ry
     cavitation energy         =       0.02027459 Ry
     PV energy                 =      -0.08257064 Ry
     correction to one-el term =     172.95057056 Ry

     iteration # 37     ecut=    50.00 Ry     beta= 0.70
     Davidson diagonalization with overlap
     ethr =  2.72E-13,  avg # of iterations =  5.0

     negative rho (up, down):  1.024E-04 0.000E+00

     the potential shift due to the Gaussian-smeared nuclei is    -1.3500 ev

     total cpu time spent up to now is    24046.8 secs

     End of self-consistent calculation

          k = 0.2500 0.2752 0.0000 ( 34780 PWs)   bands (ev):

   -76.0869 -76.0832 -76.0753 -76.0717 -75.6901 -75.6867 -75.6791 -75.6757
   -75.4776 -75.4743 -75.3489 -75.3451 -46.4691 -46.4644 -46.4575 -46.4529
   -46.1293 -46.1180 -46.1020 -46.0910 -46.0627 -46.0514 -46.0210 -46.0094
   -46.0061 -46.0015 -45.7617 -45.7554 -45.7502 -45.7439 -45.6751 -45.6568
   -45.6560 -45.6224 -45.5956 -45.5875 -45.5821 -45.5784 -45.5703 -45.5672
   -45.3501 -45.3078 -45.2709 -45.2575 -45.2463 -45.2365 -45.1753 -45.1624
   -25.9187 -25.9025 -25.8578 -25.8416 -22.2919 -22.2210 -21.9758 -21.9335
   -21.9112 -21.6474 -21.5449 -21.4999 -21.2939 -21.1815 -21.1270 -21.1156
   -21.0477 -21.0177 -20.7874 -20.7664 -20.5728 -20.4021 -20.3615 -20.2206
   -19.8505 -19.7206 -19.6977 -19.6760 -13.3477 -13.3317 -13.3005 -13.2845
   -11.0908 -10.9287 -10.8511 -10.8367 -10.4945 -10.4830 -10.1814  -9.9713
    -9.9596  -9.6797  -9.4876  -9.4139  -9.3902  -9.3616  -9.3308  -9.3091
    -9.1935  -9.1187  -9.0575  -9.0532  -9.0081  -9.0010  -8.9994  -8.8264
    -8.5928  -8.5827  -8.5373  -8.3749  -8.3081  -8.2609  -8.2515  -8.0729
    -8.0183  -7.7827  -7.7285  -7.7270  -7.7208  -7.6040  -7.5150  -7.4417
    -7.3572  -7.3208  -7.2535  -7.2346  -7.1970  -7.1010  -7.0294  -7.0280
    -6.7981  -6.7353  -6.7073  -6.6836  -6.6321  -6.6075  -6.3719  -6.3392
    -6.2994  -6.2852  -6.2450  -6.2191  -6.1358  -6.0958  -6.0519  -5.7184
    -5.6664  -5.5406  -5.4815  -5.4283  -5.3001  -5.1335  -5.0303  -4.9486
    -4.9411  -4.8217  -4.8109  -4.7406  -4.6994  -4.5438  -4.5375  -4.3734
    -3.5822  -3.4466  -3.3777  -3.2613  -3.2425  -3.2002  -3.0972  -3.0770
    -3.0037  -2.9877  -2.9009  -2.8309  -2.7714  -2.6462  -2.6046  -2.6020
    -2.5608  -2.4886  -2.4805  -2.4777  -2.4708  -2.3486  -2.0931  -2.0489
    -1.9738  -1.9673  -1.7846  -1.7783  -1.5341  -1.4753  -1.3769  -1.3637
    -1.2695  -1.2386  -1.1207  -1.1109  -0.8508  -0.8033  -0.4787  -0.2667
    -0.2309   0.0189   0.0518   0.2746   0.2899   0.8560   1.2717   1.2940
     1.3316   1.3326   1.4560   1.5901   1.7589   1.9019   1.9367   2.0119
     2.0323   2.1051   2.2539   2.4127   2.5922

     the Fermi energy is    -2.0719 ev

!    total energy              =   -3437.26311666 Ry
     estimated scf accuracy    <          6.4E-10 Ry
     smearing contrib. (-TS)   =       0.04839388 Ry
     internal energy E=F+TS    =   -3437.31151053 Ry

     The total energy is F=E-TS. E is the sum of the following terms:
     one-electron contribution =  -25110.69058997 Ry
     hartree contribution      =   12559.25209205 Ry
     xc contribution           =    -450.42276138 Ry
     ewald contribution        =    9658.23246713 Ry
     one-center paw contrib.   =    -266.46808790 Ry
     electrostatic embedding   =      -0.10375015 Ry
     cavitation energy         =       0.02027460 Ry
     PV energy                 =      -0.08257068 Ry
     correction to one-el term =     172.95141577 Ry

     WARNING: you are using the parabolic pbc correction;
              the potential shift above must be added to 
              band and Fermi energies.

     convergence has been achieved in  37 iterations

     negative rho (up, down):  1.024E-04 0.000E+00

     Forces acting on atoms (cartesian axes, Ry/au):

     atom    1 type  1   force =     0.00000000    0.00000000   -0.02894907
     atom    2 type  1   force =     0.00000000    0.00000000   -0.02895183
     atom    3 type  1   force =     0.00000000    0.00000000    0.13874175
     atom    4 type  1   force =     0.00000000    0.00000000    0.13874091
     atom    5 type  2   force =    -0.00000059    0.00000000    0.01098522
     atom    6 type  2   force =     0.00000059    0.00000000    0.01098522
     atom    7 type  1   force =     0.00000004    0.08549580   -0.00899106
     atom    8 type  1   force =    -0.00000004    0.08549580   -0.00899106
     atom    9 type  2   force =     0.00000000    0.00000000    0.02390482
     atom   10 type  2   force =     0.00000000    0.00000000    0.02391142
     atom   11 type  1   force =     0.00000004   -0.08549580   -0.00899106
     atom   12 type  1   force =    -0.00000004   -0.08549580   -0.00899106
     atom   13 type  1   force =     0.00000000    0.00000000    0.00099949
     atom   14 type  1   force =     0.00000000    0.00000000    0.00099851
     atom   15 type  1   force =     0.00000000    0.00000000    0.00701279
     atom   16 type  1   force =     0.00000000    0.00000000    0.00700543
     atom   17 type  2   force =     0.00000000    0.00000000    0.00000000
     atom   18 type  2   force =     0.00000000    0.00000000    0.00000000
     atom   19 type  1   force =     0.00000138   -0.07583248    0.00000000
     atom   20 type  1   force =    -0.00000138   -0.07583248    0.00000000
     atom   21 type  2   force =     0.00000654    0.00000000    0.00000000
     atom   22 type  2   force =    -0.00000654    0.00000000    0.00000000
     atom   23 type  1   force =     0.00000138    0.07583248    0.00000000
     atom   24 type  1   force =    -0.00000138    0.07583248    0.00000000
     atom   25 type  1   force =     0.00000000    0.00000000   -0.00701279
     atom   26 type  1   force =     0.00000000    0.00000000   -0.00700543
     atom   27 type  1   force =     0.00000000    0.00000000   -0.00099949
     atom   28 type  1   force =     0.00000000    0.00000000   -0.00099851
     atom   29 type  2   force =    -0.00000059    0.00000000   -0.01098522
     atom   30 type  2   force =     0.00000059    0.00000000   -0.01098522
     atom   31 type  1   force =     0.00000004    0.08549580    0.00899106
     atom   32 type  1   force =    -0.00000004    0.08549580    0.00899106
     atom   33 type  2   force =     0.00000000    0.00000000   -0.02390482
     atom   34 type  2   force =     0.00000000    0.00000000   -0.02391142
     atom   35 type  1   force =     0.00000004   -0.08549580    0.00899106
     atom   36 type  1   force =    -0.00000004   -0.08549580    0.00899106
     atom   37 type  1   force =     0.00000000    0.00000000   -0.13874175
     atom   38 type  1   force =     0.00000000    0.00000000   -0.13874091
     atom   39 type  1   force =     0.00000000    0.00000000    0.02894907
     atom   40 type  1   force =     0.00000000    0.00000000    0.02895183
     atom   41 type  3   force =     0.00000000    0.12606963   -0.06750208
     atom   42 type  3   force =     0.00000000    0.12606963    0.06750208
     atom   43 type  3   force =     0.00000000    0.12607050   -0.06750188
     atom   44 type  3   force =     0.00000000    0.12607050    0.06750188
     atom   45 type  3   force =     0.00000000   -0.12606963   -0.06750208
     atom   46 type  3   force =     0.00000000   -0.12606963    0.06750208
     atom   47 type  3   force =     0.00000000   -0.12607050   -0.06750188
     atom   48 type  3   force =     0.00000000   -0.12607050    0.06750188
     The non-local contrib.  to forces
     atom    1 type  1   force =     0.00000000    0.00000000    1.04126934
     atom    2 type  1   force =     0.00000000    0.00000000    1.04127865
     atom    3 type  1   force =     0.00000000    0.00000000   -1.58724547
     atom    4 type  1   force =     0.00000000    0.00000000   -1.58724880
     atom    5 type  2   force =    -0.00000036   -0.00000000    0.01795827
     atom    6 type  2   force =     0.00000036    0.00000000    0.01795827
     atom    7 type  1   force =    -0.00000063   -0.06502785   -0.05289949
     atom    8 type  1   force =     0.00000063   -0.06502785   -0.05289949
     atom    9 type  2   force =     0.00000000    0.00000000    0.00103331
     atom   10 type  2   force =     0.00000000    0.00000000    0.00104352
     atom   11 type  1   force =    -0.00000063    0.06502785   -0.05289949
     atom   12 type  1   force =     0.00000063    0.06502785   -0.05289949
     atom   13 type  1   force =     0.00000000    0.00000000   -0.19402048
     atom   14 type  1   force =     0.00000000    0.00000000   -0.19401942
     atom   15 type  1   force =     0.00000000    0.00000000    0.13882897
     atom   16 type  1   force =     0.00000000    0.00000000    0.13880534
     atom   17 type  2   force =     0.00000000    0.00000000    0.00000000
     atom   18 type  2   force =     0.00000000    0.00000000    0.00000000
     atom   19 type  1   force =    -0.00001701    0.05346856    0.00000000
     atom   20 type  1   force =     0.00001701    0.05346856    0.00000000
     atom   21 type  2   force =     0.00000257    0.00000000    0.00000000
     atom   22 type  2   force =    -0.00000257    0.00000000    0.00000000
     atom   23 type  1   force =    -0.00001701   -0.05346856    0.00000000
     atom   24 type  1   force =     0.00001701   -0.05346856    0.00000000
     atom   25 type  1   force =     0.00000000    0.00000000   -0.13882897
     atom   26 type  1   force =     0.00000000    0.00000000   -0.13880534
     atom   27 type  1   force =     0.00000000    0.00000000    0.19402048
     atom   28 type  1   force =     0.00000000    0.00000000    0.19401942
     atom   29 type  2   force =    -0.00000036   -0.00000000   -0.01795827
     atom   30 type  2   force =     0.00000036    0.00000000   -0.01795827
     atom   31 type  1   force =    -0.00000063   -0.06502785    0.05289949
     atom   32 type  1   force =     0.00000063   -0.06502785    0.05289949
     atom   33 type  2   force =     0.00000000    0.00000000   -0.00103331
     atom   34 type  2   force =     0.00000000    0.00000000   -0.00104352
     atom   35 type  1   force =    -0.00000063    0.06502785    0.05289949
     atom   36 type  1   force =     0.00000063    0.06502785    0.05289949
     atom   37 type  1   force =     0.00000000    0.00000000    1.58724547
     atom   38 type  1   force =     0.00000000    0.00000000    1.58724880
     atom   39 type  1   force =     0.00000000    0.00000000   -1.04126934
     atom   40 type  1   force =     0.00000000    0.00000000   -1.04127865
     atom   41 type  3   force =     0.00000000   -0.10828463    0.08344022
     atom   42 type  3   force =     0.00000000   -0.10828463   -0.08344022
     atom   43 type  3   force =     0.00000000   -0.10828465    0.08344008
     atom   44 type  3   force =     0.00000000   -0.10828465   -0.08344008
     atom   45 type  3   force =     0.00000000    0.10828463    0.08344022
     atom   46 type  3   force =     0.00000000    0.10828463   -0.08344022
     atom   47 type  3   force =     0.00000000    0.10828465    0.08344008
     atom   48 type  3   force =     0.00000000    0.10828465   -0.08344008
     The ionic contribution  to forces
     atom    1 type  1   force =    -0.00000000    0.00000013  -99.37400483
     atom    2 type  1   force =    -0.00000000    0.00000013  -99.37399409
     atom    3 type  1   force =     0.00000000   -0.00000019  -87.85835774
     atom    4 type  1   force =    -0.00000000   -0.00000019  -87.85834702
     atom    5 type  2   force =     0.00007245   -0.00000229 -165.83700734
     atom    6 type  2   force =    -0.00007245   -0.00000229 -165.83700734
     atom    7 type  1   force =     0.00004289    1.22674253  -63.55430978
     atom    8 type  1   force =    -0.00004289    1.22674253  -63.55430978
     atom    9 type  2   force =    -0.00000000    0.00000248 -170.63378630
     atom   10 type  2   force =    -0.00000000    0.00000248 -170.63256802
     atom   11 type  1   force =     0.00004289   -1.22674215  -63.55430767
     atom   12 type  1   force =    -0.00004289   -1.22674215  -63.55430767
     atom   13 type  1   force =     0.00000000   -0.00000159  -38.31764268
     atom   14 type  1   force =     0.00000000   -0.00000159  -38.31759606
     atom   15 type  1   force =    -0.00000000    0.00000884  -26.97100177
     atom   16 type  1   force =     0.00000000    0.00000884  -26.97058136
     atom   17 type  2   force =    -0.00000000    0.00001379   -0.00048447
     atom   18 type  2   force =    -0.00000000    0.00001379   -0.00048447
     atom   19 type  1   force =     0.00019358   -0.56794766   -0.00008684
     atom   20 type  1   force =    -0.00019358   -0.56794766   -0.00008684
     atom   21 type  2   force =     0.00009646    0.00012320   -0.00024939
     atom   22 type  2   force =    -0.00009646    0.00012320   -0.00024939
     atom   23 type  1   force =     0.00019358    0.56779522   -0.00008684
     atom   24 type  1   force =    -0.00019358    0.56779522   -0.00008684
     atom   25 type  1   force =     0.00000000    0.00000884   26.97082212
     atom   26 type  1   force =     0.00000000    0.00000884   26.97040167
     atom   27 type  1   force =     0.00000000   -0.00000159   38.31793244
     atom   28 type  1   force =    -0.00000000   -0.00000159   38.31788582
     atom   29 type  2   force =     0.00007245   -0.00000229  165.83733582
     atom   30 type  2   force =    -0.00007245   -0.00000229  165.83733582
     atom   31 type  1   force =     0.00004289    1.22671987   63.55438884
     atom   32 type  1   force =    -0.00004289    1.22671987   63.55438884
     atom   33 type  2   force =    -0.00000000    0.00000248  170.63395918
     atom   34 type  2   force =    -0.00000000    0.00000248  170.63274089
     atom   35 type  1   force =     0.00004289   -1.22671950   63.55438673
     atom   36 type  1   force =    -0.00004289   -1.22671950   63.55438673
     atom   37 type  1   force =    -0.00000000   -0.00000019   87.85829360
     atom   38 type  1   force =     0.00000000   -0.00000019   87.85828287
     atom   39 type  1   force =    -0.00000000    0.00000013   99.37407252
     atom   40 type  1   force =     0.00000000    0.00000013   99.37406178
     atom   41 type  3   force =    -0.00000000    2.76924293  -17.33627628
     atom   42 type  3   force =    -0.00000000    2.76951759   17.33634349
     atom   43 type  3   force =     0.00000000    2.76924635  -17.33627496
     atom   44 type  3   force =     0.00000000    2.76952101   17.33634217
     atom   45 type  3   force =     0.00000000   -2.76924295  -17.33627625
     atom   46 type  3   force =    -0.00000000   -2.76951761   17.33634347
     atom   47 type  3   force =    -0.00000000   -2.76924638  -17.33627493
     atom   48 type  3   force =     0.00000000   -2.76952103   17.33634215
     The local contribution  to forces
     atom    1 type  1   force =    -0.00000000    0.00000000   98.19703534
     atom    2 type  1   force =     0.00000000    0.00000000   98.19701870
     atom    3 type  1   force =    -0.00000000    0.00000000   89.68680535
     atom    4 type  1   force =     0.00000000   -0.00000000   89.68679778
     atom    5 type  2   force =    -0.00006629   -0.00000000  165.88318891
     atom    6 type  2   force =     0.00006629    0.00000000  165.88318891
     atom    7 type  1   force =    -0.00003640   -1.05228407   63.58685873
     atom    8 type  1   force =     0.00003640   -1.05228407   63.58685873
     atom    9 type  2   force =    -0.00000000    0.00000000  170.58802608
     atom   10 type  2   force =     0.00000000    0.00000000  170.58680375
     atom   11 type  1   force =    -0.00003640    1.05228407   63.58685873
     atom   12 type  1   force =     0.00003640    1.05228407   63.58685873
     atom   13 type  1   force =    -0.00000000    0.00000000   38.51534086
     atom   14 type  1   force =     0.00000000    0.00000000   38.51530825
     atom   15 type  1   force =    -0.00000000    0.00000000   26.83719721
     atom   16 type  1   force =    -0.00000000    0.00000000   26.83679047
     atom   17 type  2   force =    -0.00000000    0.00000000   -0.00579128
     atom   18 type  2   force =     0.00000000    0.00000000   -0.00579128
     atom   19 type  1   force =    -0.00016006    0.43906339   -0.00246231
     atom   20 type  1   force =     0.00016006    0.43906339   -0.00246231
     atom   21 type  2   force =    -0.00007889   -0.00000000   -0.00608718
     atom   22 type  2   force =     0.00007889   -0.00000000   -0.00608718
     atom   23 type  1   force =    -0.00016006   -0.43940277   -0.00246231
     atom   24 type  1   force =     0.00016006   -0.43940277   -0.00246231
     atom   25 type  1   force =    -0.00000000    0.00000000  -26.83897752
     atom   26 type  1   force =    -0.00000000    0.00000000  -26.83857081
     atom   27 type  1   force =     0.00000000    0.00000000  -38.51711119
     atom   28 type  1   force =     0.00000000    0.00000000  -38.51707858
     atom   29 type  2   force =    -0.00006629    0.00000000 -165.88924683
     atom   30 type  2   force =     0.00006629   -0.00000000 -165.88924683
     atom   31 type  1   force =    -0.00003640   -1.05221780  -63.58930638
     atom   32 type  1   force =     0.00003640   -1.05221780  -63.58930638
     atom   33 type  2   force =    -0.00000000    0.00000000 -170.59375937
     atom   34 type  2   force =     0.00000000    0.00000000 -170.59253707
     atom   35 type  1   force =    -0.00003640    1.05221780  -63.58930638
     atom   36 type  1   force =     0.00003640    1.05221780  -63.58930638
     atom   37 type  1   force =    -0.00000000    0.00000000  -89.69050111
     atom   38 type  1   force =    -0.00000000    0.00000000  -89.69049355
     atom   39 type  1   force =    -0.00000000    0.00000000  -98.19847304
     atom   40 type  1   force =     0.00000000   -0.00000000  -98.19845640
     atom   41 type  3   force =     0.00000000   -2.51626845   17.21509998
     atom   42 type  3   force =     0.00000000   -2.51626845  -17.21509998
     atom   43 type  3   force =    -0.00000000   -2.51627015   17.21509709
     atom   44 type  3   force =    -0.00000000   -2.51627015  -17.21509709
     atom   45 type  3   force =    -0.00000000    2.51626845   17.21509998
     atom   46 type  3   force =    -0.00000000    2.51626845  -17.21509998
     atom   47 type  3   force =     0.00000000    2.51627015   17.21509709
     atom   48 type  3   force =     0.00000000    2.51627015  -17.21509709
     The core correction contribution to forces
     atom    1 type  1   force =    -0.00000000   -0.00000000   -0.00899989
     atom    2 type  1   force =     0.00000000    0.00000000   -0.00900007
     atom    3 type  1   force =     0.00000000    0.00000000    0.01273709
     atom    4 type  1   force =    -0.00000000   -0.00000000    0.01273713
     atom    5 type  2   force =     0.00000000    0.00000000    0.00000000
     atom    6 type  2   force =     0.00000000    0.00000000    0.00000000
     atom    7 type  1   force =     0.00000001   -0.00086571    0.00062640
     atom    8 type  1   force =    -0.00000001   -0.00086571    0.00062640
     atom    9 type  2   force =     0.00000000    0.00000000    0.00000000
     atom   10 type  2   force =     0.00000000    0.00000000    0.00000000
     atom   11 type  1   force =     0.00000001    0.00086571    0.00062640
     atom   12 type  1   force =    -0.00000001    0.00086571    0.00062640
     atom   13 type  1   force =     0.00000000   -0.00000000    0.00289331
     atom   14 type  1   force =    -0.00000000   -0.00000000    0.00289328
     atom   15 type  1   force =     0.00000000   -0.00000000   -0.00188656
     atom   16 type  1   force =     0.00000000    0.00000000   -0.00188604
     atom   17 type  2   force =     0.00000000    0.00000000    0.00000000
     atom   18 type  2   force =     0.00000000    0.00000000    0.00000000
     atom   19 type  1   force =     0.00000013    0.00089635   -0.00000211
     atom   20 type  1   force =    -0.00000013    0.00089635   -0.00000211
     atom   21 type  2   force =     0.00000000    0.00000000    0.00000000
     atom   22 type  2   force =     0.00000000    0.00000000    0.00000000
     atom   23 type  1   force =     0.00000013   -0.00089682   -0.00000211
     atom   24 type  1   force =    -0.00000013   -0.00089682   -0.00000211
     atom   25 type  1   force =     0.00000000    0.00000000    0.00188446
     atom   26 type  1   force =     0.00000000    0.00000000    0.00188394
     atom   27 type  1   force =    -0.00000000    0.00000000   -0.00289532
     atom   28 type  1   force =     0.00000000    0.00000000   -0.00289529
     atom   29 type  2   force =     0.00000000    0.00000000    0.00000000
     atom   30 type  2   force =     0.00000000    0.00000000    0.00000000
     atom   31 type  1   force =     0.00000001   -0.00086538   -0.00062814
     atom   32 type  1   force =    -0.00000001   -0.00086538   -0.00062814
     atom   33 type  2   force =     0.00000000    0.00000000    0.00000000
     atom   34 type  2   force =     0.00000000    0.00000000    0.00000000
     atom   35 type  1   force =     0.00000001    0.00086538   -0.00062814
     atom   36 type  1   force =    -0.00000001    0.00086538   -0.00062814
     atom   37 type  1   force =     0.00000000    0.00000000   -0.01274115
     atom   38 type  1   force =     0.00000000    0.00000000   -0.01274119
     atom   39 type  1   force =     0.00000000   -0.00000000    0.00899770
     atom   40 type  1   force =    -0.00000000   -0.00000000    0.00899788
     atom   41 type  3   force =     0.00000000    0.00000000    0.00000000
     atom   42 type  3   force =     0.00000000    0.00000000    0.00000000
     atom   43 type  3   force =     0.00000000    0.00000000    0.00000000
     atom   44 type  3   force =     0.00000000    0.00000000    0.00000000
     atom   45 type  3   force =     0.00000000    0.00000000    0.00000000
     atom   46 type  3   force =     0.00000000    0.00000000    0.00000000
     atom   47 type  3   force =     0.00000000    0.00000000    0.00000000
     atom   48 type  3   force =     0.00000000    0.00000000    0.00000000
     The Hubbard contrib.    to forces
     atom    1 type  1   force =     0.00000000    0.00000000    0.00000000
     atom    2 type  1   force =     0.00000000    0.00000000    0.00000000
     atom    3 type  1   force =     0.00000000    0.00000000    0.00000000
     atom    4 type  1   force =     0.00000000    0.00000000    0.00000000
     atom    5 type  2   force =     0.00000000    0.00000000    0.00000000
     atom    6 type  2   force =     0.00000000    0.00000000    0.00000000
     atom    7 type  1   force =     0.00000000    0.00000000    0.00000000
     atom    8 type  1   force =     0.00000000    0.00000000    0.00000000
     atom    9 type  2   force =     0.00000000    0.00000000    0.00000000
     atom   10 type  2   force =     0.00000000    0.00000000    0.00000000
     atom   11 type  1   force =     0.00000000    0.00000000    0.00000000
     atom   12 type  1   force =     0.00000000    0.00000000    0.00000000
     atom   13 type  1   force =     0.00000000    0.00000000    0.00000000
     atom   14 type  1   force =     0.00000000    0.00000000    0.00000000
     atom   15 type  1   force =     0.00000000    0.00000000    0.00000000
     atom   16 type  1   force =     0.00000000    0.00000000    0.00000000
     atom   17 type  2   force =     0.00000000    0.00000000    0.00000000
     atom   18 type  2   force =     0.00000000    0.00000000    0.00000000
     atom   19 type  1   force =     0.00000000    0.00000000    0.00000000
     atom   20 type  1   force =     0.00000000    0.00000000    0.00000000
     atom   21 type  2   force =     0.00000000    0.00000000    0.00000000
     atom   22 type  2   force =     0.00000000    0.00000000    0.00000000
     atom   23 type  1   force =     0.00000000    0.00000000    0.00000000
     atom   24 type  1   force =     0.00000000    0.00000000    0.00000000
     atom   25 type  1   force =     0.00000000    0.00000000    0.00000000
     atom   26 type  1   force =     0.00000000    0.00000000    0.00000000
     atom   27 type  1   force =     0.00000000    0.00000000    0.00000000
     atom   28 type  1   force =     0.00000000    0.00000000    0.00000000
     atom   29 type  2   force =     0.00000000    0.00000000    0.00000000
     atom   30 type  2   force =     0.00000000    0.00000000    0.00000000
     atom   31 type  1   force =     0.00000000    0.00000000    0.00000000
     atom   32 type  1   force =     0.00000000    0.00000000    0.00000000
     atom   33 type  2   force =     0.00000000    0.00000000    0.00000000
     atom   34 type  2   force =     0.00000000    0.00000000    0.00000000
     atom   35 type  1   force =     0.00000000    0.00000000    0.00000000
     atom   36 type  1   force =     0.00000000    0.00000000    0.00000000
     atom   37 type  1   force =     0.00000000    0.00000000    0.00000000
     atom   38 type  1   force =     0.00000000    0.00000000    0.00000000
     atom   39 type  1   force =     0.00000000    0.00000000    0.00000000
     atom   40 type  1   force =     0.00000000    0.00000000    0.00000000
     atom   41 type  3   force =     0.00000000    0.00000000    0.00000000
     atom   42 type  3   force =     0.00000000    0.00000000    0.00000000
     atom   43 type  3   force =     0.00000000    0.00000000    0.00000000
     atom   44 type  3   force =     0.00000000    0.00000000    0.00000000
     atom   45 type  3   force =     0.00000000    0.00000000    0.00000000
     atom   46 type  3   force =     0.00000000    0.00000000    0.00000000
     atom   47 type  3   force =     0.00000000    0.00000000    0.00000000
     atom   48 type  3   force =     0.00000000    0.00000000    0.00000000
     The SCF correction term to forces
     atom    1 type  1   force =    -0.00000000   -0.00000003    0.00001964
     atom    2 type  1   force =     0.00000000   -0.00000003    0.00001281
     atom    3 type  1   force =    -0.00000000    0.00000003    0.00002110
     atom    4 type  1   force =     0.00000000    0.00000003    0.00001362
     atom    5 type  2   force =    -0.00000481    0.00000023    0.00001221
     atom    6 type  2   force =     0.00000481    0.00000023    0.00001221
     atom    7 type  1   force =    -0.00000532    0.00000121    0.00000473
     atom    8 type  1   force =     0.00000532    0.00000121    0.00000473
     atom    9 type  2   force =    -0.00000000   -0.00000020    0.00001165
     atom   10 type  2   force =     0.00000000   -0.00000020    0.00001047
     atom   11 type  1   force =    -0.00000532   -0.00000126    0.00000467
     atom   12 type  1   force =     0.00000532   -0.00000126    0.00000467
     atom   13 type  1   force =    -0.00000000    0.00000013    0.00000676
     atom   14 type  1   force =     0.00000000    0.00000013   -0.00000966
     atom   15 type  1   force =    -0.00000000   -0.00000015    0.00000525
     atom   16 type  1   force =     0.00000000   -0.00000015    0.00000734
     atom   17 type  2   force =    -0.00000000    0.00000052    0.00001610
     atom   18 type  2   force =     0.00000000    0.00000052    0.00001610
     atom   19 type  1   force =    -0.00001521    0.00000831    0.00000571
     atom   20 type  1   force =     0.00001521    0.00000831    0.00000571
     atom   21 type  2   force =    -0.00001346   -0.00000054    0.00001570
     atom   22 type  2   force =     0.00001346   -0.00000054    0.00001570
     atom   23 type  1   force =    -0.00001521   -0.00000817    0.00000571
     atom   24 type  1   force =     0.00001521   -0.00000817    0.00000571
     atom   25 type  1   force =    -0.00000000   -0.00000015    0.00000011
     atom   26 type  1   force =     0.00000000   -0.00000015   -0.00000199
     atom   27 type  1   force =    -0.00000000    0.00000013   -0.00000624
     atom   28 type  1   force =     0.00000000    0.00000013    0.00001017
     atom   29 type  2   force =    -0.00000481    0.00000023   -0.00002692
     atom   30 type  2   force =     0.00000481    0.00000023   -0.00002692
     atom   31 type  1   force =    -0.00000532    0.00000036   -0.00001033
     atom   32 type  1   force =     0.00000532    0.00000036   -0.00001033
     atom   33 type  2   force =    -0.00000000   -0.00000020   -0.00002805
     atom   34 type  2   force =     0.00000000   -0.00000020   -0.00002686
     atom   35 type  1   force =    -0.00000532   -0.00000042   -0.00001027
     atom   36 type  1   force =     0.00000532   -0.00000042   -0.00001027
     atom   37 type  1   force =    -0.00000000    0.00000003   -0.00002438
     atom   38 type  1   force =     0.00000000    0.00000003   -0.00001690
     atom   39 type  1   force =    -0.00000000   -0.00000003   -0.00002105
     atom   40 type  1   force =     0.00000000   -0.00000003   -0.00001421
     atom   41 type  3   force =    -0.00000000    0.00000115    0.00000261
     atom   42 type  3   force =    -0.00000000    0.00000115   -0.00000290
     atom   43 type  3   force =     0.00000000    0.00000010    0.00000245
     atom   44 type  3   force =     0.00000000    0.00000010   -0.00000273
     atom   45 type  3   force =    -0.00000000   -0.00000114    0.00000261
     atom   46 type  3   force =    -0.00000000   -0.00000115   -0.00000289
     atom   47 type  3   force =     0.00000000   -0.00000010    0.00000244
     atom   48 type  3   force =     0.00000000   -0.00000010   -0.00000273

     Total force =     0.573625     Total SCF correction =     0.000101

     BFGS Geometry Optimization
     Energy error            =      0.0E+00 Ry
     Gradient error          =      1.4E-01 Ry/Bohr

     number of scf cycles    =   1
     number of bfgs steps    =   0

     energy             new  =   -3437.2631166564 Ry

     new trust radius        =       0.1430044585 bohr
     new conv_thr            =       0.0000000010 Ry


ATOMIC_POSITIONS (crystal)
O             0.0000000000        0.5000000000        0.2704761272
O             0.5000000000        0.5000000000        0.2704764443
O             0.0000000000        0.0000000000        0.2914120415
O             0.5000000000        0.0000000000        0.2914120294
Ru            0.2499999206        0.0000000000        0.3611498311
Ru            0.7500000794        0.0000000000        0.3611498311
O             0.2500002398        0.3099461344        0.3554333117
O             0.7499997602        0.3099461344        0.3554333117
Ru            0.0000000000        0.5000000000        0.3518173674
Ru            0.5000000000        0.5000000000        0.3518178918
O             0.2500002398        0.6900538656        0.3554333117
O             0.7499997602        0.6900538656        0.3554333117
O             0.0000000000        0.0000000000        0.4130245987
O             0.5000000000        0.0000000000        0.4130246079
O             0.0000000000        0.5000000000        0.4431723795
O             0.5000000000        0.5000000000        0.4431745831
Ru            0.0000000000        0.0000000000        0.5000010000
Ru            0.5000000000        0.0000000000        0.5000010000
O             0.2499995655        0.1886972787        0.5000010000
O             0.7500004345        0.1886972787        0.5000010000
Ru            0.2499977221        0.5000000000        0.5000010000
Ru            0.7500022779        0.5000000000        0.5000010000
O             0.2499995655        0.8113037213        0.5000010000
O             0.7500004345        0.8113037213        0.5000010000
O             0.0000000000        0.5000000000        0.5568286205
O             0.5000000000        0.5000000000        0.5568264169
O             0.0000000000        0.0000000000        0.5869764013
O             0.5000000000        0.0000000000        0.5869763921
Ru            0.2499999206        0.0000000000        0.6388511689
Ru            0.7500000794        0.0000000000        0.6388511689
O             0.2500002398        0.3099461344        0.6445676883
O             0.7499997602        0.3099461344        0.6445676883
Ru            0.0000000000        0.5000000000        0.6481836326
Ru            0.5000000000        0.5000000000        0.6481831082
O             0.2500002398        0.6900538656        0.6445676883
O             0.7499997602        0.6900538656        0.6445676883
O             0.0000000000        0.0000000000        0.7085899585
O             0.5000000000        0.0000000000        0.7085899706
O             0.0000000000        0.5000000000        0.7295248728
O             0.5000000000        0.5000000000        0.7295245557
H             0.0000000000        0.1330089451        0.2608352970
H             0.0000000000        0.1330089451        0.7391647030
H             0.5000000000        0.1330090326        0.2608353149
H             0.5000000000        0.1330090326        0.7391646851
H             0.0000000000        0.8669910549        0.2608352970
H             0.0000000000        0.8669910549        0.7391647030
H             0.5000000000        0.8669909674        0.2608353149
H             0.5000000000        0.8669909674        0.7391646851



     Writing config-only to output data dir /storage/home/mgm6007/ixd4/Maria/StrainJin_Files/RuO2-110-0-2345/RuO2-110-0-2345.save/
     NEW-OLD atomic charge density approx. for the potential

     Check: negative core charge=   -0.000001

     negative rho (up, down):  9.053E-05 0.000E+00

     add environment contribution to local potential
     Polarization accuracy = 3.7E-12, # of iterations =  34

     total cpu time spent up to now is    24314.8 secs

     per-process dynamical memory:   203.7 Mb

     Self-consistent Calculation

     iteration #  1     ecut=    50.00 Ry     beta= 0.70
     Davidson diagonalization with overlap
     ethr =  1.00E-06,  avg # of iterations = 12.0

     negative rho (up, down):  1.171E-03 0.000E+00

     total cpu time spent up to now is    24631.8 secs

     total energy              =   -3437.32064650 Ry
     estimated scf accuracy    <       0.18508042 Ry
     electrostatic embedding   =      -0.09789168 Ry
     cavitation energy         =       0.02018778 Ry
     PV energy                 =      -0.08300479 Ry
     correction to one-el term =     172.90077785 Ry

     iteration #  2     ecut=    50.00 Ry     beta= 0.70
     Davidson diagonalization with overlap
     ethr =  5.03E-05,  avg # of iterations =  2.0

     negative rho (up, down):  1.076E-03 0.000E+00

     total cpu time spent up to now is    25117.3 secs

     total energy              =   -3437.32943997 Ry
     estimated scf accuracy    <       0.23444864 Ry
     electrostatic embedding   =      -0.09771051 Ry
     cavitation energy         =       0.02028675 Ry
     PV energy                 =      -0.08286934 Ry
     correction to one-el term =     172.90030972 Ry

     iteration #  3     ecut=    50.00 Ry     beta= 0.70
     Davidson diagonalization with overlap
     ethr =  5.03E-05,  avg # of iterations =  1.0

     negative rho (up, down):  1.359E-03 0.000E+00

     add environment contribution to local potential
     Polarization accuracy = 3.8E-12, # of iterations =  36

     total cpu time spent up to now is    25865.3 secs

     total energy              =   -3437.33559909 Ry
     estimated scf accuracy    <       0.02215586 Ry
     electrostatic embedding   =      -0.09786089 Ry
     cavitation energy         =       0.02026138 Ry
     PV energy                 =      -0.08292551 Ry
     correction to one-el term =     172.90007770 Ry

     iteration #  4     ecut=    50.00 Ry     beta= 0.70
     Davidson diagonalization with overlap
     ethr =  6.02E-06,  avg # of iterations =  2.0

     negative rho (up, down):  1.170E-03 0.000E+00

     add environment contribution to local potential
     Polarization accuracy = 2.6E-12, # of iterations =  35

     total cpu time spent up to now is    26418.3 secs

     total energy              =   -3437.33614734 Ry
     estimated scf accuracy    <       0.01708900 Ry
     electrostatic embedding   =      -0.09895842 Ry
     cavitation energy         =       0.02024008 Ry
     PV energy                 =      -0.08295414 Ry
     correction to one-el term =     174.36803163 Ry

     iteration #  5     ecut=    50.00 Ry     beta= 0.70
     Davidson diagonalization with overlap
     ethr =  4.64E-06,  avg # of iterations =  1.0

     negative rho (up, down):  9.015E-04 0.000E+00

     add environment contribution to local potential
     Polarization accuracy = 1.8E-12, # of iterations =  35

     total cpu time spent up to now is    26703.1 secs

     total energy              =   -3437.33683024 Ry
     estimated scf accuracy    <       0.00170555 Ry
     electrostatic embedding   =      -0.09946977 Ry
     cavitation energy         =       0.02022115 Ry
     PV energy                 =      -0.08299051 Ry
     correction to one-el term =     174.30865988 Ry

     iteration #  6     ecut=    50.00 Ry     beta= 0.70
     Davidson diagonalization with overlap
     ethr =  4.63E-07,  avg # of iterations =  2.0

     negative rho (up, down):  5.238E-04 0.000E+00

     add environment contribution to local potential
     Polarization accuracy = 1.4E-12, # of iterations =  35

     total cpu time spent up to now is    26957.0 secs

     total energy              =   -3437.33694178 Ry
     estimated scf accuracy    <       0.00062483 Ry
     electrostatic embedding   =      -0.10004940 Ry
     cavitation energy         =       0.02020676 Ry
     PV energy                 =      -0.08300972 Ry
     correction to one-el term =     174.20837809 Ry

     iteration #  7     ecut=    50.00 Ry     beta= 0.70
     Davidson diagonalization with overlap
     ethr =  1.70E-07,  avg # of iterations =  3.0

     negative rho (up, down):  1.429E-04 0.000E+00

     add environment contribution to local potential
     Polarization accuracy = 5.1E-12, # of iterations =  34

     total cpu time spent up to now is    27268.6 secs

     total energy              =   -3437.33697602 Ry
     estimated scf accuracy    <       0.00025028 Ry
     electrostatic embedding   =      -0.10081488 Ry
     cavitation energy         =       0.02019232 Ry
     PV energy                 =      -0.08302397 Ry
     correction to one-el term =     174.04458099 Ry

     iteration #  8     ecut=    50.00 Ry     beta= 0.70
     Davidson diagonalization with overlap
     ethr =  6.80E-08,  avg # of iterations =  2.0

     negative rho (up, down):  9.615E-06 0.000E+00

     add environment contribution to local potential
     Polarization accuracy = 5.7E-12, # of iterations =  34

     total cpu time spent up to now is    27526.8 secs

     total energy              =   -3437.33698200 Ry
     estimated scf accuracy    <       0.00015676 Ry
     electrostatic embedding   =      -0.10170362 Ry
     cavitation energy         =       0.02018374 Ry
     PV energy                 =      -0.08302810 Ry
     correction to one-el term =     173.80528621 Ry

     iteration #  9     ecut=    50.00 Ry     beta= 0.70
     Davidson diagonalization with overlap
     ethr =  4.26E-08,  avg # of iterations =  2.0

     negative rho (up, down):  3.168E-06 0.000E+00

     add environment contribution to local potential
     Polarization accuracy = 1.4E-12, # of iterations =  36

     total cpu time spent up to now is    27763.5 secs

     total energy              =   -3437.33699153 Ry
     estimated scf accuracy    <       0.00003425 Ry
     electrostatic embedding   =      -0.10278322 Ry
     cavitation energy         =       0.02018370 Ry
     PV energy                 =      -0.08301900 Ry
     correction to one-el term =     173.52339039 Ry

     iteration # 10     ecut=    50.00 Ry     beta= 0.70
     Davidson diagonalization with overlap
     ethr =  9.31E-09,  avg # of iterations =  2.0

     negative rho (up, down):  3.975E-06 0.000E+00

     add environment contribution to local potential
     Polarization accuracy = 1.7E-12, # of iterations =  36

     total cpu time spent up to now is    28044.0 secs

     total energy              =   -3437.33699481 Ry
     estimated scf accuracy    <       0.00000852 Ry
     electrostatic embedding   =      -0.10337020 Ry
     cavitation energy         =       0.02019208 Ry
     PV energy                 =      -0.08300269 Ry
     correction to one-el term =     173.39161273 Ry

     iteration # 11     ecut=    50.00 Ry     beta= 0.70
     Davidson diagonalization with overlap
     ethr =  2.32E-09,  avg # of iterations =  2.0

     negative rho (up, down):  5.404E-06 0.000E+00

     add environment contribution to local potential
     Polarization accuracy = 6.8E-12, # of iterations =  34

     total cpu time spent up to now is    28344.9 secs

     total energy              =   -3437.33699625 Ry
     estimated scf accuracy    <       0.00000660 Ry
     electrostatic embedding   =      -0.10354340 Ry
     cavitation energy         =       0.02019720 Ry
     PV energy                 =      -0.08299356 Ry
     correction to one-el term =     173.36568416 Ry

     iteration # 12     ecut=    50.00 Ry     beta= 0.70
     Davidson diagonalization with overlap
     ethr =  1.79E-09,  avg # of iterations =  1.0

     negative rho (up, down):  1.035E-05 0.000E+00

     add environment contribution to local potential
     Polarization accuracy = 6.6E-12, # of iterations =  34

     total cpu time spent up to now is    28644.4 secs

     total energy              =   -3437.33699840 Ry
     estimated scf accuracy    <       0.00000079 Ry
     electrostatic embedding   =      -0.10368145 Ry
     cavitation energy         =       0.02020086 Ry
     PV energy                 =      -0.08298648 Ry
     correction to one-el term =     173.34344911 Ry

     iteration # 13     ecut=    50.00 Ry     beta= 0.70
     Davidson diagonalization with overlap
     ethr =  2.14E-10,  avg # of iterations =  2.0

     negative rho (up, down):  2.165E-05 0.000E+00

     add environment contribution to local potential
     Polarization accuracy = 4.1E-12, # of iterations =  34

     total cpu time spent up to now is    28942.4 secs

     total energy              =   -3437.33699954 Ry
     estimated scf accuracy    <       0.00000057 Ry
     electrostatic embedding   =      -0.10361795 Ry
     cavitation energy         =       0.02020035 Ry
     PV energy                 =      -0.08298677 Ry
     correction to one-el term =     173.36376608 Ry

     iteration # 14     ecut=    50.00 Ry     beta= 0.70
     Davidson diagonalization with overlap
     ethr =  1.54E-10,  avg # of iterations =  2.0

     negative rho (up, down):  5.563E-05 0.000E+00

     add environment contribution to local potential
     Polarization accuracy = 4.4E-12, # of iterations =  34

     total cpu time spent up to now is    29190.3 secs

     total energy              =   -3437.33700074 Ry
     estimated scf accuracy    <       0.00000033 Ry
     electrostatic embedding   =      -0.10359569 Ry
     cavitation energy         =       0.02020030 Ry
     PV energy                 =      -0.08298569 Ry
     correction to one-el term =     173.37527633 Ry

     iteration # 15     ecut=    50.00 Ry     beta= 0.70
     Davidson diagonalization with overlap
     ethr =  9.07E-11,  avg # of iterations =  4.0

     negative rho (up, down):  7.608E-05 0.000E+00

     add environment contribution to local potential
     Polarization accuracy = 4.3E-12, # of iterations =  34

     total cpu time spent up to now is    29442.1 secs

     total energy              =   -3437.33700139 Ry
     estimated scf accuracy    <       0.00000010 Ry
     electrostatic embedding   =      -0.10350570 Ry
     cavitation energy         =       0.02019920 Ry
     PV energy                 =      -0.08298612 Ry
     correction to one-el term =     173.40286771 Ry

     iteration # 16     ecut=    50.00 Ry     beta= 0.70
     Davidson diagonalization with overlap
     ethr =  2.64E-11,  avg # of iterations =  3.0

     negative rho (up, down):  9.963E-05 0.000E+00

     add environment contribution to local potential
     Polarization accuracy = 4.3E-12, # of iterations =  34

[...]
     atom   15 type  1   force =    -0.00000000    0.00000000   26.92549331
     atom   16 type  1   force =    -0.00000000    0.00000000   26.92546628
     atom   17 type  2   force =    -0.00000000    0.00000000   -0.00581639
     atom   18 type  2   force =    -0.00000000    0.00000000   -0.00581639
     atom   19 type  1   force =    -0.00000371   -1.15558184   -0.00245904
     atom   20 type  1   force =     0.00000371   -1.15558184   -0.00245904
     atom   21 type  2   force =     0.00006760   -0.00000000   -0.00606678
     atom   22 type  2   force =    -0.00006760   -0.00000000   -0.00606678
     atom   23 type  1   force =    -0.00000371    1.15523275   -0.00245904
     atom   24 type  1   force =     0.00000371    1.15523275   -0.00245904
     atom   25 type  1   force =     0.00000000   -0.00000000  -26.92729105
     atom   26 type  1   force =    -0.00000000   -0.00000000  -26.92726403
     atom   27 type  1   force =    -0.00000000   -0.00000000  -38.49305237
     atom   28 type  1   force =     0.00000000    0.00000000  -38.49305748
     atom   29 type  2   force =    -0.00001421    0.00000000 -165.13277126
     atom   30 type  2   force =     0.00001421   -0.00000000 -165.13277126
     atom   31 type  1   force =    -0.00000192    0.38537419  -63.41251329
     atom   32 type  1   force =     0.00000192    0.38537419  -63.41251329
     atom   33 type  2   force =    -0.00000000    0.00000000 -170.94729892
     atom   34 type  2   force =     0.00000000    0.00000000 -170.94710590
     atom   35 type  1   force =    -0.00000192   -0.38537419  -63.41251329
     atom   36 type  1   force =     0.00000192   -0.38537419  -63.41251329
     atom   37 type  1   force =    -0.00000000    0.00000000  -90.30445744
     atom   38 type  1   force =    -0.00000000   -0.00000000  -90.30445441
     atom   39 type  1   force =    -0.00000000    0.00000000  -97.73070609
     atom   40 type  1   force =     0.00000000    0.00000000  -97.73071071
     atom   41 type  3   force =     0.00000000   -2.15788175   16.85534385
     atom   42 type  3   force =    -0.00000000   -2.15788175  -16.85534385
     atom   43 type  3   force =     0.00000000   -2.15788248   16.85534308
     atom   44 type  3   force =    -0.00000000   -2.15788248  -16.85534308
     atom   45 type  3   force =     0.00000000    2.15788175   16.85534385
     atom   46 type  3   force =    -0.00000000    2.15788175  -16.85534385
     atom   47 type  3   force =     0.00000000    2.15788248   16.85534308
     atom   48 type  3   force =    -0.00000000    2.15788248  -16.85534308
     The core correction contribution to forces
     atom    1 type  1   force =     0.00000000    0.00000000   -0.00983139
     atom    2 type  1   force =     0.00000000   -0.00000000   -0.00983141
     atom    3 type  1   force =     0.00000000   -0.00000000    0.01313034
     atom    4 type  1   force =    -0.00000000   -0.00000000    0.01313035
     atom    5 type  2   force =     0.00000000    0.00000000    0.00000000
     atom    6 type  2   force =     0.00000000    0.00000000    0.00000000
     atom    7 type  1   force =     0.00000000    0.00017193    0.00042124
     atom    8 type  1   force =    -0.00000000    0.00017193    0.00042124
     atom    9 type  2   force =     0.00000000    0.00000000    0.00000000
     atom   10 type  2   force =     0.00000000    0.00000000    0.00000000
     atom   11 type  1   force =     0.00000000   -0.00017193    0.00042124
     atom   12 type  1   force =    -0.00000000   -0.00017193    0.00042124
     atom   13 type  1   force =     0.00000000    0.00000000    0.00233269
     atom   14 type  1   force =     0.00000000   -0.00000000    0.00233268
     atom   15 type  1   force =     0.00000000   -0.00000000   -0.00193174
     atom   16 type  1   force =    -0.00000000    0.00000000   -0.00193171
     atom   17 type  2   force =     0.00000000    0.00000000    0.00000000
     atom   18 type  2   force =     0.00000000    0.00000000    0.00000000
     atom   19 type  1   force =     0.00000001   -0.00029843   -0.00000199
     atom   20 type  1   force =    -0.00000001   -0.00029843   -0.00000199
     atom   21 type  2   force =     0.00000000    0.00000000    0.00000000
     atom   22 type  2   force =     0.00000000    0.00000000    0.00000000
     atom   23 type  1   force =     0.00000001    0.00029791   -0.00000199
     atom   24 type  1   force =    -0.00000001    0.00029791   -0.00000199
     atom   25 type  1   force =     0.00000000    0.00000000    0.00192956
     atom   26 type  1   force =    -0.00000000   -0.00000000    0.00192952
     atom   27 type  1   force =     0.00000000   -0.00000000   -0.00233466
     atom   28 type  1   force =    -0.00000000   -0.00000000   -0.00233465
     atom   29 type  2   force =     0.00000000    0.00000000    0.00000000
     atom   30 type  2   force =     0.00000000    0.00000000    0.00000000
     atom   31 type  1   force =     0.00000000    0.00017225   -0.00042293
     atom   32 type  1   force =    -0.00000000    0.00017225   -0.00042293
     atom   33 type  2   force =     0.00000000    0.00000000    0.00000000
     atom   34 type  2   force =     0.00000000    0.00000000    0.00000000
     atom   35 type  1   force =     0.00000000   -0.00017225   -0.00042293
     atom   36 type  1   force =    -0.00000000   -0.00017225   -0.00042293
     atom   37 type  1   force =     0.00000000    0.00000000   -0.01313445
     atom   38 type  1   force =     0.00000000    0.00000000   -0.01313446
     atom   39 type  1   force =    -0.00000000    0.00000000    0.00982905
     atom   40 type  1   force =    -0.00000000   -0.00000000    0.00982907
     atom   41 type  3   force =     0.00000000    0.00000000    0.00000000
     atom   42 type  3   force =     0.00000000    0.00000000    0.00000000
     atom   43 type  3   force =     0.00000000    0.00000000    0.00000000
     atom   44 type  3   force =     0.00000000    0.00000000    0.00000000
     atom   45 type  3   force =     0.00000000    0.00000000    0.00000000
     atom   46 type  3   force =     0.00000000    0.00000000    0.00000000
     atom   47 type  3   force =     0.00000000    0.00000000    0.00000000
     atom   48 type  3   force =     0.00000000    0.00000000    0.00000000
     The Hubbard contrib.    to forces
     atom    1 type  1   force =     0.00000000    0.00000000    0.00000000
     atom    2 type  1   force =     0.00000000    0.00000000    0.00000000
     atom    3 type  1   force =     0.00000000    0.00000000    0.00000000
     atom    4 type  1   force =     0.00000000    0.00000000    0.00000000
     atom    5 type  2   force =     0.00000000    0.00000000    0.00000000
     atom    6 type  2   force =     0.00000000    0.00000000    0.00000000
     atom    7 type  1   force =     0.00000000    0.00000000    0.00000000
     atom    8 type  1   force =     0.00000000    0.00000000    0.00000000
     atom    9 type  2   force =     0.00000000    0.00000000    0.00000000
     atom   10 type  2   force =     0.00000000    0.00000000    0.00000000
     atom   11 type  1   force =     0.00000000    0.00000000    0.00000000
     atom   12 type  1   force =     0.00000000    0.00000000    0.00000000
     atom   13 type  1   force =     0.00000000    0.00000000    0.00000000
     atom   14 type  1   force =     0.00000000    0.00000000    0.00000000
     atom   15 type  1   force =     0.00000000    0.00000000    0.00000000
     atom   16 type  1   force =     0.00000000    0.00000000    0.00000000
     atom   17 type  2   force =     0.00000000    0.00000000    0.00000000
     atom   18 type  2   force =     0.00000000    0.00000000    0.00000000
     atom   19 type  1   force =     0.00000000    0.00000000    0.00000000
     atom   20 type  1   force =     0.00000000    0.00000000    0.00000000
     atom   21 type  2   force =     0.00000000    0.00000000    0.00000000
     atom   22 type  2   force =     0.00000000    0.00000000    0.00000000
     atom   23 type  1   force =     0.00000000    0.00000000    0.00000000
     atom   24 type  1   force =     0.00000000    0.00000000    0.00000000
     atom   25 type  1   force =     0.00000000    0.00000000    0.00000000
     atom   26 type  1   force =     0.00000000    0.00000000    0.00000000
     atom   27 type  1   force =     0.00000000    0.00000000    0.00000000
     atom   28 type  1   force =     0.00000000    0.00000000    0.00000000
     atom   29 type  2   force =     0.00000000    0.00000000    0.00000000
     atom   30 type  2   force =     0.00000000    0.00000000    0.00000000
     atom   31 type  1   force =     0.00000000    0.00000000    0.00000000
     atom   32 type  1   force =     0.00000000    0.00000000    0.00000000
     atom   33 type  2   force =     0.00000000    0.00000000    0.00000000
     atom   34 type  2   force =     0.00000000    0.00000000    0.00000000
     atom   35 type  1   force =     0.00000000    0.00000000    0.00000000
     atom   36 type  1   force =     0.00000000    0.00000000    0.00000000
     atom   37 type  1   force =     0.00000000    0.00000000    0.00000000
     atom   38 type  1   force =     0.00000000    0.00000000    0.00000000
     atom   39 type  1   force =     0.00000000    0.00000000    0.00000000
     atom   40 type  1   force =     0.00000000    0.00000000    0.00000000
     atom   41 type  3   force =     0.00000000    0.00000000    0.00000000
     atom   42 type  3   force =     0.00000000    0.00000000    0.00000000
     atom   43 type  3   force =     0.00000000    0.00000000    0.00000000
     atom   44 type  3   force =     0.00000000    0.00000000    0.00000000
     atom   45 type  3   force =     0.00000000    0.00000000    0.00000000
     atom   46 type  3   force =     0.00000000    0.00000000    0.00000000
     atom   47 type  3   force =     0.00000000    0.00000000    0.00000000
     atom   48 type  3   force =     0.00000000    0.00000000    0.00000000
     The SCF correction term to forces
     atom    1 type  1   force =    -0.00000000    0.00000000    0.00000275
     atom    2 type  1   force =    -0.00000000    0.00000000    0.00000275
     atom    3 type  1   force =     0.00000000    0.00000000    0.00000165
     atom    4 type  1   force =     0.00000000    0.00000000    0.00000159
     atom    5 type  2   force =    -0.00000032   -0.00000000    0.00000375
     atom    6 type  2   force =     0.00000032   -0.00000000    0.00000375
     atom    7 type  1   force =    -0.00000007   -0.00000034    0.00000153
     atom    8 type  1   force =     0.00000007   -0.00000034    0.00000153
     atom    9 type  2   force =     0.00000000    0.00000000    0.00000661
     atom   10 type  2   force =    -0.00000000    0.00000000    0.00000617
     atom   11 type  1   force =    -0.00000007    0.00000034    0.00000153
     atom   12 type  1   force =     0.00000007    0.00000034    0.00000153
     atom   13 type  1   force =    -0.00000000   -0.00000000    0.00000165
     atom   14 type  1   force =     0.00000000   -0.00000000    0.00000076
     atom   15 type  1   force =    -0.00000000    0.00000000    0.00000106
     atom   16 type  1   force =     0.00000000    0.00000000    0.00000089
     atom   17 type  2   force =    -0.00000000   -0.00000000   -0.00000001
     atom   18 type  2   force =     0.00000000   -0.00000000   -0.00000000
     atom   19 type  1   force =    -0.00000086    0.00000010   -0.00000000
     atom   20 type  1   force =     0.00000086    0.00000010   -0.00000000
     atom   21 type  2   force =    -0.00000072    0.00000000   -0.00000000
     atom   22 type  2   force =     0.00000072    0.00000000   -0.00000000
     atom   23 type  1   force =    -0.00000086   -0.00000010   -0.00000000
     atom   24 type  1   force =     0.00000086   -0.00000010   -0.00000000
     atom   25 type  1   force =     0.00000000    0.00000000   -0.00000107
     atom   26 type  1   force =     0.00000000    0.00000000   -0.00000089
     atom   27 type  1   force =     0.00000000   -0.00000000   -0.00000165
     atom   28 type  1   force =     0.00000000   -0.00000000   -0.00000076
     atom   29 type  2   force =    -0.00000032   -0.00000000   -0.00000375
     atom   30 type  2   force =     0.00000032   -0.00000000   -0.00000375
     atom   31 type  1   force =    -0.00000007   -0.00000034   -0.00000153
     atom   32 type  1   force =     0.00000007   -0.00000034   -0.00000153
     atom   33 type  2   force =     0.00000000    0.00000000   -0.00000661
     atom   34 type  2   force =    -0.00000000    0.00000000   -0.00000616
     atom   35 type  1   force =    -0.00000007    0.00000034   -0.00000153
     atom   36 type  1   force =     0.00000007    0.00000034   -0.00000153
     atom   37 type  1   force =    -0.00000000   -0.00000000   -0.00000165
     atom   38 type  1   force =     0.00000000   -0.00000000   -0.00000159
     atom   39 type  1   force =    -0.00000000    0.00000000   -0.00000274
     atom   40 type  1   force =    -0.00000000    0.00000000   -0.00000275
     atom   41 type  3   force =     0.00000000   -0.00000017    0.00000036
     atom   42 type  3   force =    -0.00000000   -0.00000017   -0.00000036
     atom   43 type  3   force =    -0.00000000   -0.00000016    0.00000036
     atom   44 type  3   force =    -0.00000000   -0.00000016   -0.00000036
     atom   45 type  3   force =     0.00000000    0.00000017    0.00000036
     atom   46 type  3   force =    -0.00000000    0.00000017   -0.00000036
     atom   47 type  3   force =    -0.00000000    0.00000016    0.00000036
     atom   48 type  3   force =    -0.00000000    0.00000016   -0.00000036

     Total force =     0.000209     Total SCF correction =     0.000017
     Energy error            =      3.0E-07 Ry
     Gradient error          =      6.3E-05 Ry/Bohr

     bfgs converged in  24 scf cycles and  23 bfgs steps
     (criteria: energy <  1.0E-04 Ry, force <  1.0E-04 Ry/Bohr)

     End of BFGS Geometry Optimization

     Final energy             =   -3437.3937404139 Ry

     File /storage/home/mgm6007/ixd4/Maria/StrainJin_Files/RuO2-110-0-2345/RuO2-110-0-2345.bfgs deleted, as requested
Begin final coordinates

ATOMIC_POSITIONS (crystal)
O             0.0000000000        0.5000000000        0.2688595966
O             0.5000000000        0.5000000000        0.2688596966
O             0.0000000000        0.0000000000        0.2908592573
O             0.5000000000        0.0000000000        0.2908592160
Ru            0.2499999814        0.0000000000        0.3609362941
Ru            0.7500000186       -0.0000000000        0.3609362941
O             0.2500000431        0.3108379365        0.3550048825
O             0.7499999569        0.3108379365        0.3550048825
Ru            0.0000000000        0.5000000000        0.3502460510
Ru            0.5000000000        0.5000000000        0.3502461348
O             0.2500000431        0.6891620635        0.3550048825
O             0.7499999569        0.6891620635        0.3550048825
O             0.0000000000        0.0000000000        0.4126391843
O             0.5000000000        0.0000000000        0.4126391871
O             0.0000000000        0.5000000000        0.4440632888
O             0.5000000000        0.5000000000        0.4440636350
Ru            0.0000000000        0.0000000000        0.5000010000
Ru            0.5000000000        0.0000000000        0.5000010000
O             0.2499999671        0.1868898338        0.5000010000
O             0.7500000329        0.1868898338        0.5000010000
Ru            0.2499997992        0.5000000000        0.5000010000
Ru            0.7500002008        0.5000000000        0.5000010000
O             0.2499999671        0.8131111662        0.5000010000
O             0.7500000329        0.8131111662        0.5000010000
O             0.0000000000        0.5000000000        0.5559377112
O             0.5000000000        0.5000000000        0.5559373650
O             0.0000000000        0.0000000000        0.5873618157
O             0.5000000000        0.0000000000        0.5873618129
Ru            0.2499999814       -0.0000000000        0.6390647059
Ru            0.7500000186        0.0000000000        0.6390647059
O             0.2500000431        0.3108379365        0.6449961175
O             0.7499999569        0.3108379365        0.6449961175
Ru            0.0000000000        0.5000000000        0.6497549490
Ru            0.5000000000        0.5000000000        0.6497548652
O             0.2500000431        0.6891620635        0.6449961175
O             0.7499999569        0.6891620635        0.6449961175
O             0.0000000000        0.0000000000        0.7091427427
O             0.5000000000        0.0000000000        0.7091427840
O             0.0000000000        0.5000000000        0.7311414034
O             0.5000000000        0.5000000000        0.7311413034
H             0.0000000000        0.1372578138        0.2655132887
H             0.0000000000        0.1372578138        0.7344867113
H             0.5000000000        0.1372578123        0.2655132459
H             0.5000000000        0.1372578123        0.7344867541
H             0.0000000000        0.8627421862        0.2655132887
H            -0.0000000000        0.8627421862        0.7344867113
H             0.5000000000        0.8627421877        0.2655132459
H             0.5000000000        0.8627421877        0.7344867541
End final coordinates



     Writing all to output data dir /storage/home/mgm6007/ixd4/Maria/StrainJin_Files/RuO2-110-0-2345/RuO2-110-0-2345.save/
 
     init_run     :    377.38s CPU    740.30s WALL (       1 calls)
     electrons    :  31600.48s CPU  79808.16s WALL (      24 calls)
     update_pot   :     38.91s CPU     38.93s WALL (      23 calls)
     forces       :     37.04s CPU     37.36s WALL (      24 calls)

     Called by init_run:
     wfcinit      :      0.50s CPU      0.50s WALL (       1 calls)
     potinit      :    309.61s CPU    539.64s WALL (       1 calls)
     hinit0       :     66.82s CPU    199.68s WALL (       1 calls)

     Called by electrons:
     c_bands      :    527.65s CPU    531.78s WALL (     436 calls)
     sum_band     :    109.28s CPU    110.46s WALL (     436 calls)
     v_of_rho     :     57.34s CPU     57.65s WALL (     443 calls)
     newd         :     30.72s CPU     30.89s WALL (     443 calls)
     PAW_pot      :     53.60s CPU     53.85s WALL (     466 calls)
     mix_rho      :    268.13s CPU    278.34s WALL (     436 calls)

     Called by c_bands:
     init_us_2    :      5.98s CPU      6.01s WALL (     896 calls)
     init_us_2:cp :      5.97s CPU      6.01s WALL (     896 calls)
     cegterg      :    507.55s CPU    511.49s WALL (     436 calls)

     Called by *egterg:
     cdiaghg      :     66.15s CPU     66.42s WALL (    1332 calls)
     h_psi        :    257.62s CPU    260.31s WALL (    1373 calls)
     s_psi        :     40.72s CPU     40.88s WALL (    1373 calls)
     g_psi        :      1.25s CPU      1.27s WALL (     936 calls)

     Called by h_psi:
     h_psi:calbec :     40.56s CPU     40.80s WALL (    1373 calls)
     vloc_psi     :    173.20s CPU    175.45s WALL (    1373 calls)
     add_vuspsi   :     40.83s CPU     41.00s WALL (    1373 calls)

     General routines
     calbec       :     63.97s CPU     64.33s WALL (    1928 calls)
     fft          :   7624.28s CPU   7625.20s WALL (    6015 calls)
     ffts         :     98.11s CPU    101.28s WALL (  154498 calls)
     fftw         :    164.12s CPU    166.81s WALL (  508306 calls)
     interpolate  :   7592.30s CPU   7593.11s WALL (     443 calls)
 
     Parallel routines
 
     Environ routines
 
     PWSCF        :      9h23m CPU     23h21m WALL

 
   This run was terminated on:  10:44:21  27Jul2023            

=------------------------------------------------------------------------------=
   JOB DONE.
=------------------------------------------------------------------------------=
