
     Program PWSCF v.7.2 starts on 18Jul2023 at 16:12:34 
        Git branch: heads/qe-7.2
        Last git commit: b4c5e8deeb7d1863e7553a87b45f8d22c21926a5
        Last git commit date: Mon Mar 27 16:12:09 2023 +0000
        Last git commit subject: Merge branch 'merge_fix_hubbard' into 'develop'

     This program is part of the open-source Quantum ESPRESSO suite
     for quantum simulation of materials; please cite
         "P. Giannozzi et al., J. Phys.:Condens. Matter 21 395502 (2009);
         "P. Giannozzi et al., J. Phys.:Condens. Matter 29 465901 (2017);
         "P. Giannozzi et al., J. Chem. Phys. 152 154105 (2020);
          URL http://www.quantum-espresso.org", 
     in publications or presentations arising from this work. More details at
     http://www.quantum-espresso.org/quote

     Parallel version (MPI), running on    20 processors

     MPI processes distributed on     1 nodes
     112260 MiB available memory on the printing compute node when the environment starts
 
     Reading input from RuO2-110-0-0.in

     Current dimensions of program PWSCF are:
     Max number of different atomic species (ntypx) = 10
     Max number of k-points (npk) =  40000
     Max angular momentum in pseudopotentials (lmaxx) =  4
 
     Reading input from environ.in:
     * Environ restarting
     * setting up water environment
     * using electronic solvent mode
     * setting boundary derivatives method to SCCS default
     
     file O.pbe-n-kjpaw_psl.0.1.UPF: wavefunction(s)  2P renormalized
     Message from routine setup:
     using ibrav=0 with symmetry is DISCOURAGED, use correct ibrav instead
 
     R & G space division:  proc/nbgrp/npool/nimage =      20
     Subspace diagonalization in iterative solution of the eigenvalue problem:
     one sub-group per band group will be used
     scalapack distributed-memory algorithm (size of sub-group:  2*  2 procs)

 
     Parallelization info
     --------------------
     sticks:   dense  smooth     PW     G-vecs:    dense   smooth      PW
     Min         282     113     29                56190    14217    1913
     Max         283     114     30                56201    14227    1932
     Sum        5657    2263    593              1123933   284439   38425
 
     Using Slab Decomposition
 


     bravais-lattice index     =            0
     lattice parameter (alat)  =      12.1041  a.u.
     unit-cell volume          =    5954.5483 (a.u.)^3
     number of atoms/cell      =           42
     number of atomic types    =            3
     number of electrons       =       362.00
     number of Kohn-Sham states=          217
     kinetic-energy cutoff     =      50.0000  Ry
     charge density cutoff     =     500.0000  Ry
     scf convergence threshold =      1.0E-09
     mixing beta               =       0.7000
     number of iterations used =            8  local-TF  mixing
     energy convergence thresh.=      1.0E-04
     force convergence thresh. =      1.0E-04
     Exchange-correlation= PBE
                           (   1   4   3   4   0   0   0)
     nstep                     =          200


     ================================================================================
 
                                  Environ Setup Summary

     ================================================================================
 
     Please cite

          O. Andreussi, I. Dabo and N. Marzari, J. Chem. Phys. 136, 064102 (2012)

     in publications or presentations arising from this work.

     ================================================================================
 
     Parameters
     ==========

     compensation onset threshold      =               0.1000E+00
     static permittivity               =                    78.30
     surface tension in input (dyn/cm) =                    47.90
     surface tension in internal units =               0.6153E-04
     external pressure in input (GPa)  =                    -0.36
     external pressure in inter. units =              -0.2447E-04

     Solvent Boundary
     ================

     solvent mode                      =               electronic
     derivatives method                =                    chain
     numerical core for derivatives    =                      fft
     switching function adopted        =                     SCCS
     density limit for vacuum region   =               0.5000E-02
     density limit for bulk solvent    =               0.1000E-03

     Electrostatic Setup
     ===================

     electrostatic problem to solve    =              generalized
     numerical solver adopted          =                       cg
     type of auxiliary density adopted =                     none
     numerical core for poisson        =                      fft
     type of pbc corrections           =                parabolic
     numerical core for corrections    =                      1da

     ================================================================================
 

     celldm(1)=  12.104053  celldm(2)=   0.000000  celldm(3)=   0.000000
     celldm(4)=   0.000000  celldm(5)=   0.000000  celldm(6)=   0.000000

     crystal axes: (cart. coord. in units of alat)
               a(1) = (   1.000000   0.000000   0.000000 )  
               a(2) = (   0.000000   0.971735   0.000000 )  
               a(3) = (   0.000000   0.000000   3.455479 )  

     reciprocal axes: (cart. coord. in units 2 pi/alat)
               b(1) = (  1.000000  0.000000  0.000000 )  
               b(2) = (  0.000000  1.029087  0.000000 )  
               b(3) = (  0.000000  0.000000  0.289395 )  


     PseudoPot. # 1 for O  read from file:
     /gpfs/group/ixd4/default/Simon/pseudopotentials/materialscloud/SSSP_1.3.0_PBE_efficiency/O.pbe-n-kjpaw_psl.0.1.UPF
     MD5 check sum: 0234752ac141de4415c5fc33072bef88
     Pseudo is Projector augmented-wave + core cor, Zval =  6.0
     Generated using "atomic" code by A. Dal Corso  v.5.0.99 svn rev. 10869
     Shape of augmentation charge: BESSEL
     Using radial grid of 1095 points,  4 beta functions with: 
                l(1) =   0
                l(2) =   0
                l(3) =   1
                l(4) =   1
     Q(r) pseudized with 0 coefficients 


     PseudoPot. # 2 for Ru read from file:
     /gpfs/group/ixd4/default/Simon/pseudopotentials/materialscloud/SSSP_1.3.0_PBE_efficiency/Ru_ONCV_PBE-1.0.oncvpsp.upf
     MD5 check sum: be037bb81c227cfb9b1461a9f099f4bd
     Pseudo is Norm-conserving, Zval = 16.0
     Generated using ONCVPSP code by D. R. Hamann
     Using radial grid of 1458 points,  6 beta functions with: 
                l(1) =   0
                l(2) =   0
                l(3) =   1
                l(4) =   1
                l(5) =   2
                l(6) =   2

     PseudoPot. # 3 for H  read from file:
     /gpfs/group/ixd4/default/Simon/pseudopotentials/materialscloud/SSSP_1.3.0_PBE_efficiency/H.pbe-rrkjus_psl.1.0.0.UPF
     MD5 check sum: f52b6d4d1c606e5624b1dc7b2218f220
     Pseudo is Ultrasoft, Zval =  1.0
     Generated using "atomic" code by A. Dal Corso  v.5.1
     Using radial grid of  929 points,  2 beta functions with: 
                l(1) =   0
                l(2) =   0
     Q(r) pseudized with 0 coefficients 


     atomic species   valence    mass     pseudopotential
        O              6.00    15.99940     O ( 1.00)
        Ru            16.00   101.07000     Ru( 1.00)
        H              1.00     1.00794     H ( 1.00)

      4 Sym. Ops. (no inversion) found



   Cartesian axes

     site n.     atom                  positions (alat units)
         1           O   tau(   1) = (  -0.0077095   0.4858677   0.9430508  )
         2           O   tau(   2) = (   0.5006017   0.4858677   0.9453416  )
         3           O   tau(   3) = (  -0.0005764   0.0000000   1.0636789  )
         4           O   tau(   4) = (   0.4997062   0.0000000   1.0631784  )
         5           Ru  tau(   5) = (   0.2496083   0.0000000   1.2258479  )
         6           Ru  tau(   6) = (   0.7493724   0.0000000   1.2267802  )
         7           O   tau(   7) = (   0.2469728   0.2994328   1.2378711  )
         8           O   tau(   8) = (   0.7498513   0.2987347   1.2382670  )
         9           Ru  tau(   9) = (  -0.0036656   0.4858677   1.2385471  )
        10           Ru  tau(  10) = (   0.4970576   0.4858677   1.2109801  )
        11           O   tau(  11) = (   0.2469728   0.6723026   1.2378711  )
        12           O   tau(  12) = (   0.7498513   0.6730006   1.2382670  )
        13           O   tau(  13) = (   0.0011599   0.0000000   1.4260504  )
        14           O   tau(  14) = (   0.4988522   0.0000000   1.4257404  )
        15           O   tau(  15) = (   0.0041895   0.4858677   1.5422025  )
        16           O   tau(  16) = (   0.5039344   0.4858677   1.5250683  )
        17           Ru  tau(  17) = (   0.0027107   0.0000000   1.7277432  )
        18           Ru  tau(  18) = (   0.4990717   0.0000000   1.7277432  )
        19           O   tau(  19) = (   0.2530546   0.1903228   1.7277432  )
        20           O   tau(  20) = (   0.7496782   0.1860557   1.7277432  )
        21           Ru  tau(  21) = (   0.2580963   0.4858677   1.7277432  )
        22           Ru  tau(  22) = (   0.7442286   0.4858677   1.7277432  )
        23           O   tau(  23) = (   0.2530546   0.7814135   1.7277432  )
        24           O   tau(  24) = (   0.7496782   0.7856806   1.7277432  )
        25           O   tau(  25) = (   0.0041895   0.4858677   1.9132805  )
        26           O   tau(  26) = (   0.5039344   0.4858677   1.9304146  )
        27           O   tau(  27) = (   0.0011599   0.0000000   2.0294326  )
        28           O   tau(  28) = (   0.4988522   0.0000000   2.0297426  )
        29           Ru  tau(  29) = (   0.2496083   0.0000000   2.2296351  )
        30           Ru  tau(  30) = (   0.7493724   0.0000000   2.2287028  )
        31           O   tau(  31) = (   0.2469728   0.2994328   2.2176119  )
        32           O   tau(  32) = (   0.7498513   0.2987347   2.2172160  )
        33           Ru  tau(  33) = (  -0.0036656   0.4858677   2.2169359  )
        34           Ru  tau(  34) = (   0.4970576   0.4858677   2.2445028  )
        35           O   tau(  35) = (   0.2469728   0.6723026   2.2176119  )
        36           O   tau(  36) = (   0.7498513   0.6730006   2.2172160  )
        37           O   tau(  37) = (  -0.0005764   0.0000000   2.3918075  )
        38           O   tau(  38) = (   0.4997062   0.0000000   2.3923080  )
        39           O   tau(  39) = (  -0.0077095   0.4858677   2.5124322  )
        40           O   tau(  40) = (   0.5006017   0.4858677   2.5101414  )
        41           H   tau(  41) = (   0.1266693   0.4858677   0.8684780  )
        42           H   tau(  42) = (   0.1266693   0.4858677   2.5870015  )

     number of k points=     1  Marzari-Vanderbilt smearing, width (Ry)=  0.0300
                       cart. coord. in units 2pi/alat
        k(    1) = (   0.2500000   0.2572717   0.0000000), wk =   2.0000000

     Dense  grid:  1123933 G-vectors     FFT dimensions: (  90,  90, 300)

     Smooth grid:   284439 G-vectors     FFT dimensions: (  60,  54, 192)

     Estimated max dynamical RAM per process >     172.62 MB

     Estimated total dynamical RAM >       3.37 GB

     Check: negative core charge=   -0.000001

     Initial potential from superposition of free atoms

     starting charge     361.9933, renormalised to     362.0000

     add environment contribution to local potential
     Polarization accuracy = 3.9E-12, # of iterations =  24

     negative rho (up, down):  3.731E-05 0.000E+00
     Starting wfcs are  234 randomized atomic wfcs
     Checking if some PAW data can be deallocated... 

     total cpu time spent up to now is     1103.5 secs

     per-process dynamical memory:   144.5 Mb

     Self-consistent Calculation

     iteration #  1     ecut=    50.00 Ry     beta= 0.70
     Davidson diagonalization with overlap
     ethr =  1.00E-02,  avg # of iterations =  2.0

     total cpu time spent up to now is     1398.4 secs

     total energy              =   -3427.53975703 Ry
     estimated scf accuracy    <      10.61255182 Ry
     electrostatic embedding   =      -0.00173322 Ry
     cavitation energy         =       0.02000415 Ry
     PV energy                 =      -0.08294595 Ry
     correction to one-el term =     210.19918567 Ry

     iteration #  2     ecut=    50.00 Ry     beta= 0.70
     Davidson diagonalization with overlap
     ethr =  2.93E-03,  avg # of iterations =  2.0

     total cpu time spent up to now is     1672.3 secs

     total energy              =   -3429.93967376 Ry
     estimated scf accuracy    <       2.33596548 Ry
     electrostatic embedding   =      -0.00219919 Ry
     cavitation energy         =       0.02020030 Ry
     PV energy                 =      -0.08253574 Ry
     correction to one-el term =     210.20015236 Ry

     iteration #  3     ecut=    50.00 Ry     beta= 0.70
     Davidson diagonalization with overlap
     ethr =  6.45E-04,  avg # of iterations =  1.0

     total cpu time spent up to now is     1980.1 secs

     total energy              =   -3430.19301991 Ry
     estimated scf accuracy    <       0.55334912 Ry
     electrostatic embedding   =      -0.00244473 Ry
     cavitation energy         =       0.02031470 Ry
     PV energy                 =      -0.08256273 Ry
     correction to one-el term =     210.20075880 Ry

     iteration #  4     ecut=    50.00 Ry     beta= 0.70
     Davidson diagonalization with overlap
     ethr =  1.53E-04,  avg # of iterations =  2.0

     total cpu time spent up to now is     2260.3 secs

     total energy              =   -3430.23243438 Ry
     estimated scf accuracy    <       0.21367181 Ry
     electrostatic embedding   =      -0.00245534 Ry
     cavitation energy         =       0.02047358 Ry
     PV energy                 =      -0.08215997 Ry
     correction to one-el term =     210.20055713 Ry

     iteration #  5     ecut=    50.00 Ry     beta= 0.70
     Davidson diagonalization with overlap
     ethr =  5.90E-05,  avg # of iterations =  2.0

     add environment contribution to local potential
     Polarization accuracy = 5.2E-12, # of iterations =  37

     total cpu time spent up to now is     2557.5 secs

     total energy              =   -3430.23457542 Ry
     estimated scf accuracy    <       0.05224253 Ry
     electrostatic embedding   =      -0.00250965 Ry
     cavitation energy         =       0.02075905 Ry
     PV energy                 =      -0.08163911 Ry
     correction to one-el term =     210.20042279 Ry

     iteration #  6     ecut=    50.00 Ry     beta= 0.70
     Davidson diagonalization with overlap
     ethr =  1.44E-05,  avg # of iterations =  9.0

     add environment contribution to local potential
     Polarization accuracy = 2.5E-12, # of iterations =  38

     total cpu time spent up to now is     2872.3 secs

     total energy              =   -3430.25365838 Ry
     estimated scf accuracy    <       0.02973901 Ry
     electrostatic embedding   =      -0.01992489 Ry
     cavitation energy         =       0.02116421 Ry
     PV energy                 =      -0.08096891 Ry
     correction to one-el term =     193.27311588 Ry

     iteration #  7     ecut=    50.00 Ry     beta= 0.70
     Davidson diagonalization with overlap
     ethr =  8.22E-06,  avg # of iterations =  2.0

     add environment contribution to local potential
     Polarization accuracy = 6.6E-12, # of iterations =  38

     total cpu time spent up to now is     3206.9 secs

     total energy              =   -3430.25455592 Ry
     estimated scf accuracy    <       0.01939963 Ry
     electrostatic embedding   =      -0.02208149 Ry
     cavitation energy         =       0.02130371 Ry
     PV energy                 =      -0.08073314 Ry
     correction to one-el term =     192.29043094 Ry

     iteration #  8     ecut=    50.00 Ry     beta= 0.70
     Davidson diagonalization with overlap
     ethr =  5.36E-06,  avg # of iterations =  1.0

     add environment contribution to local potential
     Polarization accuracy = 9.6E-12, # of iterations =  42

     total cpu time spent up to now is     3464.1 secs

     total energy              =   -3430.25301445 Ry
     estimated scf accuracy    <       0.01674358 Ry
     electrostatic embedding   =      -0.02384291 Ry
     cavitation energy         =       0.02140218 Ry
     PV energy                 =      -0.08056470 Ry
     correction to one-el term =     191.65533985 Ry

     iteration #  9     ecut=    50.00 Ry     beta= 0.70
     Davidson diagonalization with overlap
     ethr =  4.63E-06,  avg # of iterations =  2.0

     add environment contribution to local potential
     Polarization accuracy = 6.5E-12, # of iterations =  44

     total cpu time spent up to now is     3768.9 secs

     total energy              =   -3430.25420222 Ry
     estimated scf accuracy    <       0.01685746 Ry
     electrostatic embedding   =      -0.03047619 Ry
     cavitation energy         =       0.02170923 Ry
     PV energy                 =      -0.08006173 Ry
     correction to one-el term =     189.99952042 Ry

     iteration # 10     ecut=    50.00 Ry     beta= 0.70
     Davidson diagonalization with overlap
     ethr =  4.63E-06,  avg # of iterations =  2.0

     add environment contribution to local potential
     Polarization accuracy = 3.9E-12, # of iterations =  44

     total cpu time spent up to now is     4064.2 secs

     total energy              =   -3430.25462504 Ry
     estimated scf accuracy    <       0.00968048 Ry
     electrostatic embedding   =      -0.03599386 Ry
     cavitation energy         =       0.02186839 Ry
     PV energy                 =      -0.07977757 Ry
     correction to one-el term =     189.25343511 Ry

     iteration # 11     ecut=    50.00 Ry     beta= 0.70
     Davidson diagonalization with overlap
     ethr =  2.67E-06,  avg # of iterations =  8.0

     add environment contribution to local potential
     Polarization accuracy = 4.0E-12, # of iterations =  45

     total cpu time spent up to now is     4343.7 secs

     total energy              =   -3430.25481166 Ry
     estimated scf accuracy    <       0.00649213 Ry
     electrostatic embedding   =      -0.03627452 Ry
     cavitation energy         =       0.02178694 Ry
     PV energy                 =      -0.07980471 Ry
     correction to one-el term =     189.81145688 Ry

     iteration # 12     ecut=    50.00 Ry     beta= 0.70
     Davidson diagonalization with overlap
     ethr =  1.79E-06,  avg # of iterations =  1.0

     negative rho (up, down):  5.966E-05 0.000E+00

     add environment contribution to local potential
     Polarization accuracy = 2.6E-12, # of iterations =  44

     total cpu time spent up to now is     4666.9 secs

     total energy              =   -3430.25497177 Ry
     estimated scf accuracy    <       0.00374468 Ry
     electrostatic embedding   =      -0.03702420 Ry
     cavitation energy         =       0.02173428 Ry
     PV energy                 =      -0.07980438 Ry
     correction to one-el term =     190.28731854 Ry

     iteration # 13     ecut=    50.00 Ry     beta= 0.70
     Davidson diagonalization with overlap
     ethr =  1.03E-06,  avg # of iterations =  1.0

     negative rho (up, down):  9.691E-05 0.000E+00

     add environment contribution to local potential
     Polarization accuracy = 2.0E-12, # of iterations =  44

     total cpu time spent up to now is     4949.7 secs

     total energy              =   -3430.25538202 Ry
     estimated scf accuracy    <       0.00109443 Ry
     electrostatic embedding   =      -0.03696315 Ry
     cavitation energy         =       0.02160062 Ry
     PV energy                 =      -0.07986555 Ry
     correction to one-el term =     191.41400543 Ry

     iteration # 14     ecut=    50.00 Ry     beta= 0.70
     Davidson diagonalization with overlap
     ethr =  3.02E-07,  avg # of iterations =  1.0

     negative rho (up, down):  8.995E-06 0.000E+00

     add environment contribution to local potential
     Polarization accuracy = 5.9E-12, # of iterations =  44

     total cpu time spent up to now is     5248.8 secs

     total energy              =   -3430.25557646 Ry
     estimated scf accuracy    <       0.00045819 Ry
     electrostatic embedding   =      -0.03634371 Ry
     cavitation energy         =       0.02155015 Ry
     PV energy                 =      -0.07989787 Ry
     correction to one-el term =     191.93418275 Ry

     iteration # 15     ecut=    50.00 Ry     beta= 0.70
     Davidson diagonalization with overlap
     ethr =  1.27E-07,  avg # of iterations =  2.0

     negative rho (up, down):  1.615E-05 0.000E+00

     add environment contribution to local potential
     Polarization accuracy = 8.5E-12, # of iterations =  43

     total cpu time spent up to now is     5538.5 secs

     total energy              =   -3430.25577429 Ry
     estimated scf accuracy    <       0.00019770 Ry
     electrostatic embedding   =      -0.03467477 Ry
     cavitation energy         =       0.02150454 Ry
     PV energy                 =      -0.07994320 Ry
     correction to one-el term =     192.53117732 Ry

     iteration # 16     ecut=    50.00 Ry     beta= 0.70
     Davidson diagonalization with overlap
     ethr =  5.46E-08,  avg # of iterations =  3.0

     negative rho (up, down):  2.264E-06 0.000E+00

     add environment contribution to local potential
     Polarization accuracy = 8.1E-12, # of iterations =  44

     total cpu time spent up to now is     5829.4 secs

     total energy              =   -3430.25588056 Ry
     estimated scf accuracy    <       0.00009361 Ry
     electrostatic embedding   =      -0.03286224 Ry
     cavitation energy         =       0.02149510 Ry
     PV energy                 =      -0.07996563 Ry
     correction to one-el term =     192.89912638 Ry

     iteration # 17     ecut=    50.00 Ry     beta= 0.70
     Davidson diagonalization with overlap
     ethr =  2.59E-08,  avg # of iterations =  2.0

     negative rho (up, down):  1.172E-06 0.000E+00

     add environment contribution to local potential
     Polarization accuracy = 9.7E-12, # of iterations =  43

     total cpu time spent up to now is     6150.7 secs

     total energy              =   -3430.25590716 Ry
     estimated scf accuracy    <       0.00004219 Ry
     electrostatic embedding   =      -0.03229427 Ry
     cavitation energy         =       0.02150456 Ry
     PV energy                 =      -0.07996578 Ry
     correction to one-el term =     192.90469749 Ry

     iteration # 18     ecut=    50.00 Ry     beta= 0.70
     Davidson diagonalization with overlap
     ethr =  1.17E-08,  avg # of iterations =  2.0

     negative rho (up, down):  4.866E-05 0.000E+00

     add environment contribution to local potential
     Polarization accuracy = 8.8E-12, # of iterations =  44

     total cpu time spent up to now is     6448.1 secs

     total energy              =   -3430.25591886 Ry
     estimated scf accuracy    <       0.00002030 Ry
     electrostatic embedding   =      -0.03218470 Ry
     cavitation energy         =       0.02151292 Ry
     PV energy                 =      -0.07995601 Ry
     correction to one-el term =     192.90290952 Ry

     iteration # 19     ecut=    50.00 Ry     beta= 0.70
     Davidson diagonalization with overlap
     ethr =  5.61E-09,  avg # of iterations =  2.0

     negative rho (up, down):  4.717E-05 0.000E+00

     add environment contribution to local potential
     Polarization accuracy = 1.3E-12, # of iterations =  44

     total cpu time spent up to now is     6708.8 secs

     total energy              =   -3430.25593595 Ry
     estimated scf accuracy    <       0.00000880 Ry
     electrostatic embedding   =      -0.03164560 Ry
     cavitation energy         =       0.02151585 Ry
     PV energy                 =      -0.07995351 Ry
     correction to one-el term =     192.99390453 Ry

     iteration # 20     ecut=    50.00 Ry     beta= 0.70
     Davidson diagonalization with overlap
     ethr =  2.43E-09,  avg # of iterations =  2.0

     negative rho (up, down):  5.747E-05 0.000E+00

     add environment contribution to local potential
     Polarization accuracy = 4.0E-12, # of iterations =  44

     total cpu time spent up to now is     6952.5 secs

     total energy              =   -3430.25593891 Ry
     estimated scf accuracy    <       0.00000310 Ry
     electrostatic embedding   =      -0.03153462 Ry
     cavitation energy         =       0.02151948 Ry
     PV energy                 =      -0.07994481 Ry
     correction to one-el term =     193.01635837 Ry

     iteration # 21     ecut=    50.00 Ry     beta= 0.70
     Davidson diagonalization with overlap
     ethr =  8.56E-10,  avg # of iterations =  2.0

     negative rho (up, down):  1.436E-04 0.000E+00

     add environment contribution to local potential
     Polarization accuracy = 1.5E-12, # of iterations =  44

     total cpu time spent up to now is     7261.7 secs

     total energy              =   -3430.25594001 Ry
     estimated scf accuracy    <       0.00000139 Ry
     electrostatic embedding   =      -0.03145760 Ry
     cavitation energy         =       0.02152145 Ry
     PV energy                 =      -0.07994038 Ry
     correction to one-el term =     193.02506429 Ry

     iteration # 22     ecut=    50.00 Ry     beta= 0.70
     Davidson diagonalization with overlap
     ethr =  3.85E-10,  avg # of iterations =  2.0

     negative rho (up, down):  1.328E-04 0.000E+00

     add environment contribution to local potential
     Polarization accuracy = 1.5E-12, # of iterations =  44

     total cpu time spent up to now is     7555.5 secs

     total energy              =   -3430.25594076 Ry
     estimated scf accuracy    <       0.00000129 Ry
     electrostatic embedding   =      -0.03134778 Ry
     cavitation energy         =       0.02152150 Ry
     PV energy                 =      -0.07993856 Ry
     correction to one-el term =     193.04666977 Ry

     iteration # 23     ecut=    50.00 Ry     beta= 0.70
     Davidson diagonalization with overlap
     ethr =  3.57E-10,  avg # of iterations =  2.0

     negative rho (up, down):  1.425E-04 0.000E+00

     add environment contribution to local potential
     Polarization accuracy = 1.5E-12, # of iterations =  44

     total cpu time spent up to now is     7861.8 secs

     total energy              =   -3430.25594099 Ry
     estimated scf accuracy    <       0.00000074 Ry
     electrostatic embedding   =      -0.03139360 Ry
     cavitation energy         =       0.02152127 Ry
     PV energy                 =      -0.07993751 Ry
     correction to one-el term =     193.03940360 Ry

     iteration # 24     ecut=    50.00 Ry     beta= 0.70
     Davidson diagonalization with overlap
     ethr =  2.04E-10,  avg # of iterations =  1.0

     negative rho (up, down):  1.672E-04 0.000E+00

     add environment contribution to local potential
     Polarization accuracy = 2.0E-12, # of iterations =  44

     total cpu time spent up to now is     8158.2 secs

     total energy              =   -3430.25594121 Ry
     estimated scf accuracy    <       0.00000014 Ry
     electrostatic embedding   =      -0.03139928 Ry
     cavitation energy         =       0.02152132 Ry
     PV energy                 =      -0.07993667 Ry
     correction to one-el term =     193.03878831 Ry

     iteration # 25     ecut=    50.00 Ry     beta= 0.70
     Davidson diagonalization with overlap
     ethr =  3.88E-11,  avg # of iterations =  2.0

     negative rho (up, down):  1.675E-04 0.000E+00

     add environment contribution to local potential
     Polarization accuracy = 3.6E-12, # of iterations =  44

     total cpu time spent up to now is     8445.4 secs

     total energy              =   -3430.25594159 Ry
     estimated scf accuracy    <       0.00000009 Ry
     electrostatic embedding   =      -0.03138687 Ry
     cavitation energy         =       0.02152138 Ry
     PV energy                 =      -0.07993597 Ry
     correction to one-el term =     193.04054058 Ry

     iteration # 26     ecut=    50.00 Ry     beta= 0.70
     Davidson diagonalization with overlap
     ethr =  2.44E-11,  avg # of iterations =  1.0

     negative rho (up, down):  1.670E-04 0.000E+00

     add environment contribution to local potential
     Polarization accuracy = 1.5E-12, # of iterations =  44

     total cpu time spent up to now is     8716.2 secs

     total energy              =   -3430.25594179 Ry
     estimated scf accuracy    <       0.00000008 Ry
     electrostatic embedding   =      -0.03138535 Ry
     cavitation energy         =       0.02152141 Ry
     PV energy                 =      -0.07993606 Ry
     correction to one-el term =     193.03977251 Ry

     iteration # 27     ecut=    50.00 Ry     beta= 0.70
     Davidson diagonalization with overlap
     ethr =  2.28E-11,  avg # of iterations =  1.0

     negative rho (up, down):  1.667E-04 0.000E+00

     add environment contribution to local potential
     Polarization accuracy = 1.5E-12, # of iterations =  44

     total cpu time spent up to now is     9038.1 secs

     total energy              =   -3430.25594205 Ry
     estimated scf accuracy    <       0.00000008 Ry
     electrostatic embedding   =      -0.03138313 Ry
     cavitation energy         =       0.02152145 Ry
     PV energy                 =      -0.07993620 Ry
     correction to one-el term =     193.03924961 Ry

     iteration # 28     ecut=    50.00 Ry     beta= 0.70
     Davidson diagonalization with overlap
     ethr =  2.28E-11,  avg # of iterations =  1.0

     negative rho (up, down):  1.648E-04 0.000E+00

     add environment contribution to local potential
     Polarization accuracy = 1.5E-12, # of iterations =  44

     total cpu time spent up to now is     9352.1 secs

     total energy              =   -3430.25594253 Ry
     estimated scf accuracy    <       0.00000008 Ry
     electrostatic embedding   =      -0.03137949 Ry
     cavitation energy         =       0.02152152 Ry
     PV energy                 =      -0.07993631 Ry
     correction to one-el term =     193.03853078 Ry

     iteration # 29     ecut=    50.00 Ry     beta= 0.70
     Davidson diagonalization with overlap
     ethr =  2.15E-11,  avg # of iterations =  2.0

     negative rho (up, down):  1.563E-04 0.000E+00

     add environment contribution to local potential
     Polarization accuracy = 1.4E-12, # of iterations =  44

     total cpu time spent up to now is     9648.3 secs

     total energy              =   -3430.25594360 Ry
     estimated scf accuracy    <       0.00000007 Ry
     electrostatic embedding   =      -0.03137227 Ry
     cavitation energy         =       0.02152165 Ry
     PV energy                 =      -0.07993647 Ry
     correction to one-el term =     193.03743127 Ry

     iteration # 30     ecut=    50.00 Ry     beta= 0.70
     Davidson diagonalization with overlap
     ethr =  1.81E-11,  avg # of iterations =  2.0

     negative rho (up, down):  1.522E-04 0.000E+00

     add environment contribution to local potential
     Polarization accuracy = 1.4E-12, # of iterations =  44

     total cpu time spent up to now is     9980.8 secs

     total energy              =   -3430.25594486 Ry
     estimated scf accuracy    <       0.00000006 Ry
     electrostatic embedding   =      -0.03136831 Ry
     cavitation energy         =       0.02152174 Ry
     PV energy                 =      -0.07993670 Ry
     correction to one-el term =     193.03659377 Ry

     iteration # 31     ecut=    50.00 Ry     beta= 0.70
     Davidson diagonalization with overlap
     ethr =  1.67E-11,  avg # of iterations =  1.0

     negative rho (up, down):  1.450E-04 0.000E+00

     add environment contribution to local potential
     Polarization accuracy = 1.6E-12, # of iterations =  44

     total cpu time spent up to now is    10249.9 secs

     total energy              =   -3430.25594547 Ry
     estimated scf accuracy    <       0.00000005 Ry
     electrostatic embedding   =      -0.03136680 Ry
     cavitation energy         =       0.02152176 Ry
     PV energy                 =      -0.07993680 Ry
     correction to one-el term =     193.03641675 Ry

     iteration # 32     ecut=    50.00 Ry     beta= 0.70
     Davidson diagonalization with overlap
     ethr =  1.44E-11,  avg # of iterations =  2.0

     negative rho (up, down):  1.508E-04 0.000E+00

     add environment contribution to local potential
     Polarization accuracy = 1.4E-12, # of iterations =  44

     total cpu time spent up to now is    10550.2 secs

     total energy              =   -3430.25594813 Ry
     estimated scf accuracy    <       0.00000005 Ry
     electrostatic embedding   =      -0.03136199 Ry
     cavitation energy         =       0.02152181 Ry
     PV energy                 =      -0.07993685 Ry
     correction to one-el term =     193.03705455 Ry

     iteration # 33     ecut=    50.00 Ry     beta= 0.70
     Davidson diagonalization with overlap
     ethr =  1.33E-11,  avg # of iterations =  5.0

     negative rho (up, down):  1.534E-04 0.000E+00

     add environment contribution to local potential
     Polarization accuracy = 1.4E-12, # of iterations =  44

     total cpu time spent up to now is    10854.6 secs

     total energy              =   -3430.25595392 Ry
     estimated scf accuracy    <       0.00000006 Ry
     electrostatic embedding   =      -0.03135148 Ry
     cavitation energy         =       0.02152185 Ry
     PV energy                 =      -0.07993666 Ry
     correction to one-el term =     193.03915494 Ry

     iteration # 34     ecut=    50.00 Ry     beta= 0.70
     Davidson diagonalization with overlap
     ethr =  1.33E-11,  avg # of iterations =  2.0

     negative rho (up, down):  1.593E-04 0.000E+00

     add environment contribution to local potential
     Polarization accuracy = 1.4E-12, # of iterations =  44

     total cpu time spent up to now is    11099.9 secs

     total energy              =   -3430.25595306 Ry
     estimated scf accuracy    <       0.00000004 Ry
     electrostatic embedding   =      -0.03135782 Ry
     cavitation energy         =       0.02152175 Ry
     PV energy                 =      -0.07993674 Ry
     correction to one-el term =     193.03903768 Ry

     iteration # 35     ecut=    50.00 Ry     beta= 0.70
     Davidson diagonalization with overlap
     ethr =  1.19E-11,  avg # of iterations =  2.0

     negative rho (up, down):  1.693E-04 0.000E+00

     add environment contribution to local potential
     Polarization accuracy = 1.4E-12, # of iterations =  44

     total cpu time spent up to now is    11404.8 secs

     total energy              =   -3430.25595554 Ry
     estimated scf accuracy    <       0.00000004 Ry
     electrostatic embedding   =      -0.03135822 Ry
     cavitation energy         =       0.02152167 Ry
     PV energy                 =      -0.07993662 Ry
     correction to one-el term =     193.04036062 Ry

     iteration # 36     ecut=    50.00 Ry     beta= 0.70
     Davidson diagonalization with overlap
     ethr =  9.81E-12,  avg # of iterations =  3.0

     negative rho (up, down):  1.680E-04 0.000E+00

     add environment contribution to local potential
     Polarization accuracy = 1.4E-12, # of iterations =  44

     total cpu time spent up to now is    11681.3 secs

     total energy              =   -3430.25596026 Ry
     estimated scf accuracy    <       0.00000003 Ry
     electrostatic embedding   =      -0.03136055 Ry
     cavitation energy         =       0.02152154 Ry
     PV energy                 =      -0.07993650 Ry
     correction to one-el term =     193.04183524 Ry

     iteration # 37     ecut=    50.00 Ry     beta= 0.70
     Davidson diagonalization with overlap
     ethr =  8.85E-12,  avg # of iterations =  2.0

     negative rho (up, down):  1.724E-04 0.000E+00

     add environment contribution to local potential
     Polarization accuracy = 1.3E-12, # of iterations =  44

     total cpu time spent up to now is    11946.6 secs

     total energy              =   -3430.25596200 Ry
     estimated scf accuracy    <       0.00000002 Ry
     electrostatic embedding   =      -0.03136236 Ry
     cavitation energy         =       0.02152153 Ry
     PV energy                 =      -0.07993659 Ry
     correction to one-el term =     193.04134407 Ry

     iteration # 38     ecut=    50.00 Ry     beta= 0.70
     Davidson diagonalization with overlap
     ethr =  5.27E-12,  avg # of iterations =  2.0

     negative rho (up, down):  1.723E-04 0.000E+00

     add environment contribution to local potential
     Polarization accuracy = 1.3E-12, # of iterations =  44

     total cpu time spent up to now is    12263.9 secs

     total energy              =   -3430.25596329 Ry
     estimated scf accuracy    <          9.3E-09 Ry
     electrostatic embedding   =      -0.03136510 Ry
     cavitation energy         =       0.02152146 Ry
     PV energy                 =      -0.07993649 Ry
     correction to one-el term =     193.04183203 Ry

     iteration # 39     ecut=    50.00 Ry     beta= 0.70
     Davidson diagonalization with overlap
     ethr =  2.57E-12,  avg # of iterations =  5.0

     negative rho (up, down):  1.662E-04 0.000E+00

     add environment contribution to local potential
     Polarization accuracy = 4.7E-12, # of iterations =  43

     total cpu time spent up to now is    12542.2 secs

     total energy              =   -3430.25596560 Ry
     estimated scf accuracy    <          4.9E-09 Ry
     electrostatic embedding   =      -0.03136939 Ry
     cavitation energy         =       0.02152143 Ry
     PV energy                 =      -0.07993647 Ry
     correction to one-el term =     193.04111367 Ry

     iteration # 40     ecut=    50.00 Ry     beta= 0.70
     Davidson diagonalization with overlap
     ethr =  1.35E-12,  avg # of iterations =  3.0

     negative rho (up, down):  1.653E-04 0.000E+00

     add environment contribution to local potential
     Polarization accuracy = 7.3E-12, # of iterations =  43

     total cpu time spent up to now is    12864.6 secs

     total energy              =   -3430.25596700 Ry
     estimated scf accuracy    <          1.1E-09 Ry
     electrostatic embedding   =      -0.03136882 Ry
     cavitation energy         =       0.02152153 Ry
     PV energy                 =      -0.07993644 Ry
     correction to one-el term =     193.03988812 Ry

     iteration # 41     ecut=    50.00 Ry     beta= 0.70
     Davidson diagonalization with overlap
     ethr =  3.03E-13,  avg # of iterations =  2.0

     negative rho (up, down):  1.626E-04 0.000E+00

     the potential shift due to the Gaussian-smeared nuclei is    -1.2993 ev

     total cpu time spent up to now is    13195.4 secs

     End of self-consistent calculation

          k = 0.2500 0.2573 0.0000 ( 35510 PWs)   bands (ev):

   -79.2737 -79.2603 -78.9005 -78.8877 -78.8854 -78.8726 -78.6037 -78.5908
   -78.2859 -78.2677 -78.2614 -78.2391 -49.8476 -49.8343 -49.1217 -49.1083
   -49.0041 -48.9925 -48.9912 -48.9796 -48.9576 -48.9448 -48.9220 -48.9091
   -48.8769 -48.8635 -48.8503 -48.8375 -48.7778 -48.7648 -48.7515 -48.7386
   -48.5924 -48.5400 -48.5345 -48.5035 -48.4905 -48.4650 -48.3533 -48.3404
   -48.2293 -48.2213 -48.1455 -48.1295 -48.1202 -48.1165 -48.0841 -48.0150
   -24.6538 -24.4662 -24.2548 -24.1131 -24.0417 -23.9813 -23.8857 -23.8647
   -23.8060 -23.7163 -23.6806 -23.6316 -23.5347 -23.4905 -23.4485 -23.4366
   -23.3999 -23.3000 -23.2968 -23.2787 -23.2223 -23.1824 -23.0729 -23.0442
   -22.8958 -22.8250 -22.7797 -22.6898 -12.7702 -12.7446 -12.5727 -12.4855
   -12.3793 -12.2442 -12.2044 -12.0496 -12.0425 -11.9898 -11.8869 -11.8667
   -11.8445 -11.7850 -11.7692 -11.7504 -11.5977 -11.5861 -11.5355 -11.5163
   -11.3811 -11.3143 -11.2924 -11.1690 -11.1131 -10.8850 -10.8097 -10.7171
   -10.6969 -10.6127 -10.5306 -10.4400 -10.3153 -10.1590 -10.1313 -10.0463
    -9.8919  -9.8581  -9.7377  -9.6884  -9.6762  -9.5854  -9.5604  -9.4639
    -9.4238  -9.3812  -9.2468  -9.2085  -9.1927  -9.0741  -9.0678  -9.0289
    -8.9950  -8.9278  -8.8638  -8.7947  -8.7812  -8.6883  -8.6305  -8.5526
    -8.4645  -8.4500  -8.3103  -8.2931  -8.2404  -8.1333  -8.1007  -8.0253
    -7.9619  -7.8204  -7.7848  -7.7195  -7.6740  -7.5587  -7.5344  -7.4256
    -7.3426  -7.3321  -7.2412  -7.1745  -7.1693  -6.9810  -6.7976  -6.7200
    -6.0330  -5.9690  -5.8410  -5.8127  -5.8057  -5.7653  -5.7236  -5.6730
    -5.6221  -5.5601  -5.5009  -5.4851  -5.4586  -5.4002  -5.3973  -5.2095
    -5.1905  -5.1394  -5.0821  -5.0315  -4.8192  -4.7916  -4.7227  -4.6185
    -4.5554  -4.5523  -4.3544  -4.2855  -4.2583  -4.1238  -4.1138  -4.0758
    -4.0063  -3.9784  -3.8303  -3.6249  -3.1013  -2.8344  -2.7724  -2.5523
    -2.4459  -2.3042  -2.0160  -1.5212  -1.3920  -1.3162  -1.1251  -1.1156
    -1.0216  -0.9097  -0.8116  -0.7405  -0.7142  -0.4995  -0.4778  -0.3299
    -0.1361

     the Fermi energy is    -4.8684 ev

!    total energy              =   -3430.25596682 Ry
     estimated scf accuracy    <          8.4E-10 Ry
     smearing contrib. (-TS)   =       0.04066096 Ry
     internal energy E=F+TS    =   -3430.29662778 Ry

     The total energy is F=E-TS. E is the sum of the following terms:
     one-electron contribution =  -25157.52288370 Ry
     hartree contribution      =   12549.03850932 Ry
     xc contribution           =    -444.15188074 Ry
     ewald contribution        =    9695.99537014 Ry
     one-center paw contrib.   =    -266.60561354 Ry
     electrostatic embedding   =      -0.03136917 Ry
     cavitation energy         =       0.02152154 Ry
     PV energy                 =      -0.07993643 Ry
     correction to one-el term =     193.03965479 Ry

     WARNING: you are using the parabolic pbc correction;
              the potential shift above must be added to 
              band and Fermi energies.

     convergence has been achieved in  41 iterations

     negative rho (up, down):  1.626E-04 0.000E+00

     Forces acting on atoms (cartesian axes, Ry/au):

     atom    1 type  1   force =     0.00363360    0.00000000   -0.00932848
     atom    2 type  1   force =    -0.00034214    0.00000000   -0.01091113
     atom    3 type  1   force =     0.00006651    0.00000000   -0.00713748
     atom    4 type  1   force =    -0.00014367    0.00000000   -0.00746953
     atom    5 type  2   force =     0.00089124    0.00000000    0.00120435
     atom    6 type  2   force =    -0.00098635    0.00000000    0.00103994
     atom    7 type  1   force =    -0.00133074    0.01260653    0.00176653
     atom    8 type  1   force =    -0.00021386    0.01337213    0.00122405
     atom    9 type  2   force =     0.00565572    0.00000000    0.00361296
     atom   10 type  2   force =     0.00168949    0.00000000    0.00675139
     atom   11 type  1   force =    -0.00133074   -0.01260653    0.00176653
     atom   12 type  1   force =    -0.00021386   -0.01337213    0.00122405
     atom   13 type  1   force =     0.00010629    0.00000000   -0.00226904
     atom   14 type  1   force =    -0.00005700    0.00000000   -0.00205533
     atom   15 type  1   force =    -0.00256345    0.00000000   -0.00086112
     atom   16 type  1   force =    -0.00096723    0.00000000    0.00265868
     atom   17 type  2   force =    -0.00648362    0.00000000    0.00000000
     atom   18 type  2   force =     0.00774892    0.00000000    0.00000000
     atom   19 type  1   force =    -0.00300183   -0.02978570    0.00000000
     atom   20 type  1   force =     0.00293501   -0.01498296    0.00000000
     atom   21 type  2   force =    -0.00580131    0.00000000    0.00000000
     atom   22 type  2   force =     0.00779178    0.00000000    0.00000000
     atom   23 type  1   force =    -0.00300183    0.02978570    0.00000000
     atom   24 type  1   force =     0.00293501    0.01498296    0.00000000
     atom   25 type  1   force =    -0.00256345    0.00000000    0.00086112
     atom   26 type  1   force =    -0.00096723    0.00000000   -0.00265868
     atom   27 type  1   force =     0.00010629    0.00000000    0.00226904
     atom   28 type  1   force =    -0.00005700    0.00000000    0.00205533
     atom   29 type  2   force =     0.00089124    0.00000000   -0.00120435
     atom   30 type  2   force =    -0.00098635    0.00000000   -0.00103994
     atom   31 type  1   force =    -0.00133074    0.01260653   -0.00176653
     atom   32 type  1   force =    -0.00021386    0.01337213   -0.00122405
     atom   33 type  2   force =     0.00565572    0.00000000   -0.00361296
     atom   34 type  2   force =     0.00168949    0.00000000   -0.00675139
     atom   35 type  1   force =    -0.00133074   -0.01260653   -0.00176653
     atom   36 type  1   force =    -0.00021386   -0.01337213   -0.00122405
     atom   37 type  1   force =     0.00006651    0.00000000    0.00713748
     atom   38 type  1   force =    -0.00014367    0.00000000    0.00746953
     atom   39 type  1   force =     0.00363360    0.00000000    0.00932848
     atom   40 type  1   force =    -0.00034214    0.00000000    0.01091113
     atom   41 type  3   force =    -0.00545486    0.00000000    0.00288618
     atom   42 type  3   force =    -0.00545486    0.00000000   -0.00288618
     The non-local contrib.  to forces
     atom    1 type  1   force =     1.73615699    0.00000000    0.27629370
     atom    2 type  1   force =    -0.05542930    0.00000000    1.35519083
     atom    3 type  1   force =     0.00685440    0.00000000    1.08955242
     atom    4 type  1   force =    -0.00142499    0.00000000    1.08939197
     atom    5 type  2   force =    -0.00425172    0.00000000   -0.06593495
     atom    6 type  2   force =     0.00647501    0.00000000   -0.06127430
     atom    7 type  1   force =     0.07111980    0.02494720   -0.08256074
     atom    8 type  1   force =    -0.02721246    0.02108856   -0.05552317
     atom    9 type  2   force =     0.00757634    0.00000000    0.01638092
     atom   10 type  2   force =     0.00428706    0.00000000   -0.08986093
     atom   11 type  1   force =     0.07111980   -0.02494720   -0.08256074
     atom   12 type  1   force =    -0.02721246   -0.02108856   -0.05552317
     atom   13 type  1   force =     0.01740050    0.00000000    0.04292304
     atom   14 type  1   force =    -0.00295926    0.00000000    0.03683670
     atom   15 type  1   force =    -0.00344863    0.00000000   -0.02934510
     atom   16 type  1   force =     0.01366334    0.00000000    0.31112344
     atom   17 type  2   force =     0.00009926    0.00000000    0.00000000
     atom   18 type  2   force =     0.00388244    0.00000000    0.00000000
     atom   19 type  1   force =     0.03617855   -0.03414516    0.00000000
     atom   20 type  1   force =    -0.02172296   -0.00227845    0.00000000
     atom   21 type  2   force =     0.01144667    0.00000000    0.00000000
     atom   22 type  2   force =     0.03119732    0.00000000    0.00000000
     atom   23 type  1   force =     0.03617855    0.03414516    0.00000000
     atom   24 type  1   force =    -0.02172296    0.00227845    0.00000000
     atom   25 type  1   force =    -0.00344863    0.00000000    0.02934510
     atom   26 type  1   force =     0.01366334    0.00000000   -0.31112344
     atom   27 type  1   force =     0.01740050    0.00000000   -0.04292304
     atom   28 type  1   force =    -0.00295926    0.00000000   -0.03683670
     atom   29 type  2   force =    -0.00425172    0.00000000    0.06593495
     atom   30 type  2   force =     0.00647501    0.00000000    0.06127430
     atom   31 type  1   force =     0.07111980    0.02494720    0.08256074
     atom   32 type  1   force =    -0.02721246    0.02108856    0.05552317
     atom   33 type  2   force =     0.00757634    0.00000000   -0.01638092
     atom   34 type  2   force =     0.00428706    0.00000000    0.08986093
     atom   35 type  1   force =     0.07111980   -0.02494720    0.08256074
     atom   36 type  1   force =    -0.02721246   -0.02108856    0.05552317
     atom   37 type  1   force =     0.00685440    0.00000000   -1.08955242
     atom   38 type  1   force =    -0.00142499    0.00000000   -1.08939197
     atom   39 type  1   force =     1.73615699    0.00000000   -0.27629370
     atom   40 type  1   force =    -0.05542930    0.00000000   -1.35519083
     atom   41 type  3   force =    -0.09172766    0.00000000    0.05573708
     atom   42 type  3   force =    -0.09172766    0.00000000   -0.05573708
     The ionic contribution  to forces
     atom    1 type  1   force =    -2.89340453    0.00000018  -95.15347996
     atom    2 type  1   force =     0.37585118    0.00000018 -100.37117654
     atom    3 type  1   force =    -0.10065671   -0.00000035  -93.33847955
     atom    4 type  1   force =     0.06787110   -0.00000035  -93.34624076
     atom    5 type  2   force =     0.15230431   -0.00000230 -172.50788413
     atom    6 type  2   force =     0.02046748   -0.00000241 -171.97531443
     atom    7 type  1   force =     0.02010071   -1.29495122  -61.86886216
     atom    8 type  1   force =    -0.32755452   -1.26736444  -61.87152991
     atom    9 type  2   force =     0.08336851    0.00000352 -165.30505966
     atom   10 type  2   force =     0.15557856    0.00000292 -172.11275650
     atom   11 type  1   force =     0.02010073    1.29495174  -61.86885956
     atom   12 type  1   force =    -0.32755453    1.26736497  -61.87152722
     atom   13 type  1   force =    -0.18505677   -0.00000159  -37.43528105
     atom   14 type  1   force =     0.06287169   -0.00000158  -37.53458432
     atom   15 type  1   force =    -0.23131278    0.00001036  -24.61714231
     atom   16 type  1   force =    -0.07215187    0.00000963  -27.83607982
     atom   17 type  2   force =    -0.18549799    0.00001850   -0.00044554
     atom   18 type  2   force =     0.39213100    0.00002035   -0.00044479
     atom   19 type  1   force =    -0.31989826    0.65496267   -0.00007366
     atom   20 type  1   force =     0.27011946    1.02761422   -0.00007415
     atom   21 type  2   force =     0.76513214    0.00011451   -0.00025386
     atom   22 type  2   force =     0.20595618    0.00011026   -0.00025590
     atom   23 type  1   force =    -0.31989944   -0.65511806   -0.00007366
     atom   24 type  1   force =     0.27011905   -1.02776100   -0.00007415
     atom   25 type  1   force =    -0.23132608    0.00001036   24.61693126
     atom   26 type  1   force =    -0.07216020    0.00000963   27.83594729
     atom   27 type  1   force =    -0.18505955   -0.00000159   37.43560484
     atom   28 type  1   force =     0.06287287   -0.00000158   37.53490989
     atom   29 type  2   force =     0.15230322   -0.00000230  172.50809850
     atom   30 type  2   force =     0.02046831   -0.00000241  171.97553130
     atom   31 type  1   force =     0.02010058   -1.29498434   61.86891955
     atom   32 type  1   force =    -0.32755395   -1.26739520   61.87159047
     atom   33 type  2   force =     0.08335785    0.00000352  165.30517442
     atom   34 type  2   force =     0.15558638    0.00000292  172.11289818
     atom   35 type  1   force =     0.02010060    1.29498486   61.86891696
     atom   36 type  1   force =    -0.32755396    1.26739574   61.87158779
     atom   37 type  1   force =    -0.10065723   -0.00000035   93.33862288
     atom   38 type  1   force =     0.06787248   -0.00000035   93.34638663
     atom   39 type  1   force =    -2.89350381    0.00000018   95.15355880
     atom   40 type  1   force =     0.37585386    0.00000018  100.37123782
     atom   41 type  3   force =     2.64010725    0.00000002  -16.48162497
     atom   42 type  3   force =     2.64020668    0.00000002   16.48166199
     The local contribution  to forces
     atom    1 type  1   force =     1.06247906   -0.00000000   94.88310180
     atom    2 type  1   force =    -0.23662703    0.00000000   98.98553699
     atom    3 type  1   force =     0.07127115   -0.00000000   92.22743213
     atom    4 type  1   force =    -0.04622007   -0.00000000   92.23414655
     atom    5 type  2   force =    -0.14499189    0.00000000  172.59319060
     atom    6 type  2   force =    -0.02877544    0.00000000  172.01174208
     atom    7 type  1   force =    -0.09006746    1.27909965   61.96817581
     atom    8 type  1   force =     0.35311641    1.26179876   61.91477054
     atom    9 type  2   force =    -0.12764756    0.00000000  165.29674074
     atom   10 type  2   force =    -0.11046672    0.00000000  172.20135975
     atom   11 type  1   force =    -0.09006746   -1.27909961   61.96817581
     atom   12 type  1   force =     0.35311641   -1.26179876   61.91477054
     atom   13 type  1   force =     0.16453296    0.00000000   37.38907184
     atom   14 type  1   force =    -0.05665395    0.00000000   37.49422082
     atom   15 type  1   force =     0.22987487   -0.00000000   24.64520953
     atom   16 type  1   force =     0.06010597    0.00000000   27.53057470
     atom   17 type  2   force =     0.17602683    0.00000000   -0.00581108
     atom   18 type  2   force =    -0.38538011    0.00000000   -0.00583778
     atom   19 type  1   force =     0.28113749   -0.65198559   -0.00244281
     atom   20 type  1   force =    -0.24570902   -1.04096100   -0.00243213
     atom   21 type  2   force =    -0.78186192    0.00000000   -0.00600759
     atom   22 type  2   force =    -0.22958393   -0.00000000   -0.00599169
     atom   23 type  1   force =     0.28113870    0.65162544   -0.00244281
     atom   24 type  1   force =    -0.24570883    1.04059422   -0.00243213
     atom   25 type  1   force =     0.22985463    0.00000000  -24.64696607
     atom   26 type  1   force =     0.06009403   -0.00000000  -27.53232370
     atom   27 type  1   force =     0.16453494    0.00000000  -37.39080127
     atom   28 type  1   force =    -0.05665407   -0.00000000  -37.49594858
     atom   29 type  2   force =    -0.14498479   -0.00000000 -172.59927543
     atom   30 type  2   force =    -0.02877927    0.00000000 -172.01783428
     atom   31 type  1   force =    -0.09004166    1.27910355  -61.97060327
     atom   32 type  1   force =     0.35309420    1.26180270  -61.91720342
     atom   33 type  2   force =    -0.12765634   -0.00000000 -165.30254552
     atom   34 type  2   force =    -0.11046803    0.00000000 -172.20705377
     atom   35 type  1   force =    -0.09004166   -1.27910351  -61.97060327
     atom   36 type  1   force =     0.35309420   -1.26180270  -61.91720342
     atom   37 type  1   force =     0.07126990   -0.00000000  -92.23134643
     atom   38 type  1   force =    -0.04622047   -0.00000000  -92.23806413
     atom   39 type  1   force =     1.06251945   -0.00000000  -94.88463287
     atom   40 type  1   force =    -0.23661783    0.00000000  -98.98689577
     atom   41 type  3   force =    -2.58129434   -0.00000000   16.45854431
     atom   42 type  3   force =    -2.58129434   -0.00000000  -16.45854431
     The core correction contribution to forces
     atom    1 type  1   force =    -0.01760760    0.00000000   -0.00281471
     atom    2 type  1   force =     0.00049257    0.00000000   -0.01113099
     atom    3 type  1   force =    -0.00005377   -0.00000000   -0.01084084
     atom    4 type  1   force =    -0.00000784   -0.00000000   -0.01083587
     atom    5 type  2   force =     0.00000000    0.00000000    0.00000000
     atom    6 type  2   force =     0.00000000    0.00000000    0.00000000
     atom    7 type  1   force =    -0.00088729   -0.00057343    0.00083186
     atom    8 type  1   force =     0.00050622   -0.00055126    0.00052210
     atom    9 type  2   force =     0.00000000    0.00000000    0.00000000
     atom   10 type  2   force =     0.00000000    0.00000000    0.00000000
     atom   11 type  1   force =    -0.00088729    0.00057343    0.00083186
     atom   12 type  1   force =     0.00050622    0.00055126    0.00052210
     atom   13 type  1   force =    -0.00015774   -0.00000000   -0.00027428
     atom   14 type  1   force =     0.00002684   -0.00000000   -0.00022035
     atom   15 type  1   force =     0.00009410   -0.00000000   -0.00005951
     atom   16 type  1   force =    -0.00013351    0.00000000   -0.00397428
     atom   17 type  2   force =     0.00000000    0.00000000    0.00000000
     atom   18 type  2   force =     0.00000000    0.00000000    0.00000000
     atom   19 type  1   force =    -0.00029956    0.00091180   -0.00000205
     atom   20 type  1   force =     0.00015431    0.00031845   -0.00000200
     atom   21 type  2   force =     0.00000000    0.00000000    0.00000000
     atom   22 type  2   force =     0.00000000    0.00000000    0.00000000
     atom   23 type  1   force =    -0.00029956   -0.00091238   -0.00000205
     atom   24 type  1   force =     0.00015431   -0.00031906   -0.00000200
     atom   25 type  1   force =     0.00009405   -0.00000000    0.00005735
     atom   26 type  1   force =    -0.00013351   -0.00000000    0.00397226
     atom   27 type  1   force =    -0.00015774    0.00000000    0.00027201
     atom   28 type  1   force =     0.00002684   -0.00000000    0.00021804
     atom   29 type  2   force =     0.00000000    0.00000000    0.00000000
     atom   30 type  2   force =     0.00000000    0.00000000    0.00000000
     atom   31 type  1   force =    -0.00088724   -0.00057350   -0.00083339
     atom   32 type  1   force =     0.00050622   -0.00055130   -0.00052370
     atom   33 type  2   force =     0.00000000    0.00000000    0.00000000
     atom   34 type  2   force =     0.00000000    0.00000000    0.00000000
     atom   35 type  1   force =    -0.00088724    0.00057350   -0.00083339
     atom   36 type  1   force =     0.00050622    0.00055130   -0.00052370
     atom   37 type  1   force =    -0.00005377    0.00000000    0.01083611
     atom   38 type  1   force =    -0.00000783    0.00000000    0.01083122
     atom   39 type  1   force =    -0.01760833   -0.00000000    0.00281222
     atom   40 type  1   force =     0.00049269    0.00000000    0.01112940
     atom   41 type  3   force =     0.00000000    0.00000000    0.00000000
     atom   42 type  3   force =     0.00000000    0.00000000    0.00000000
     The Hubbard contrib.    to forces
     atom    1 type  1   force =     0.00000000    0.00000000    0.00000000
     atom    2 type  1   force =     0.00000000    0.00000000    0.00000000
     atom    3 type  1   force =     0.00000000    0.00000000    0.00000000
     atom    4 type  1   force =     0.00000000    0.00000000    0.00000000
     atom    5 type  2   force =     0.00000000    0.00000000    0.00000000
     atom    6 type  2   force =     0.00000000    0.00000000    0.00000000
     atom    7 type  1   force =     0.00000000    0.00000000    0.00000000
     atom    8 type  1   force =     0.00000000    0.00000000    0.00000000
     atom    9 type  2   force =     0.00000000    0.00000000    0.00000000
     atom   10 type  2   force =     0.00000000    0.00000000    0.00000000
     atom   11 type  1   force =     0.00000000    0.00000000    0.00000000
     atom   12 type  1   force =     0.00000000    0.00000000    0.00000000
     atom   13 type  1   force =     0.00000000    0.00000000    0.00000000
     atom   14 type  1   force =     0.00000000    0.00000000    0.00000000
     atom   15 type  1   force =     0.00000000    0.00000000    0.00000000
     atom   16 type  1   force =     0.00000000    0.00000000    0.00000000
     atom   17 type  2   force =     0.00000000    0.00000000    0.00000000
     atom   18 type  2   force =     0.00000000    0.00000000    0.00000000
     atom   19 type  1   force =     0.00000000    0.00000000    0.00000000
     atom   20 type  1   force =     0.00000000    0.00000000    0.00000000
     atom   21 type  2   force =     0.00000000    0.00000000    0.00000000
     atom   22 type  2   force =     0.00000000    0.00000000    0.00000000
     atom   23 type  1   force =     0.00000000    0.00000000    0.00000000
     atom   24 type  1   force =     0.00000000    0.00000000    0.00000000
     atom   25 type  1   force =     0.00000000    0.00000000    0.00000000
     atom   26 type  1   force =     0.00000000    0.00000000    0.00000000
     atom   27 type  1   force =     0.00000000    0.00000000    0.00000000
     atom   28 type  1   force =     0.00000000    0.00000000    0.00000000
     atom   29 type  2   force =     0.00000000    0.00000000    0.00000000
     atom   30 type  2   force =     0.00000000    0.00000000    0.00000000
     atom   31 type  1   force =     0.00000000    0.00000000    0.00000000
     atom   32 type  1   force =     0.00000000    0.00000000    0.00000000
     atom   33 type  2   force =     0.00000000    0.00000000    0.00000000
     atom   34 type  2   force =     0.00000000    0.00000000    0.00000000
     atom   35 type  1   force =     0.00000000    0.00000000    0.00000000
     atom   36 type  1   force =     0.00000000    0.00000000    0.00000000
     atom   37 type  1   force =     0.00000000    0.00000000    0.00000000
     atom   38 type  1   force =     0.00000000    0.00000000    0.00000000
     atom   39 type  1   force =     0.00000000    0.00000000    0.00000000
     atom   40 type  1   force =     0.00000000    0.00000000    0.00000000
     atom   41 type  3   force =     0.00000000    0.00000000    0.00000000
     atom   42 type  3   force =     0.00000000    0.00000000    0.00000000
     The SCF correction term to forces
     atom    1 type  1   force =     0.00001475   -0.00000001    0.00000305
     atom    2 type  1   force =    -0.00001309   -0.00000001    0.00000400
     atom    3 type  1   force =     0.00002214    0.00000001    0.00000228
     atom    4 type  1   force =    -0.00002207    0.00000001    0.00000359
     atom    5 type  2   force =     0.00000328    0.00000004    0.00001521
     atom    6 type  2   force =    -0.00000366    0.00000004    0.00003301
     atom    7 type  1   force =    -0.00000006   -0.00000204    0.00000165
     atom    8 type  1   force =     0.00000026    0.00000782    0.00000876
     atom    9 type  2   force =     0.00002830   -0.00000004    0.00000786
     atom   10 type  2   force =    -0.00002941   -0.00000004    0.00001175
     atom   11 type  1   force =    -0.00000006    0.00000203    0.00000164
     atom   12 type  1   force =     0.00000026   -0.00000783    0.00000876
     atom   13 type  1   force =     0.00001327    0.00000002    0.00001438
     atom   14 type  1   force =    -0.00001323    0.00000002    0.00002762
     atom   15 type  1   force =     0.00000568   -0.00000002    0.00000126
     atom   16 type  1   force =    -0.00000600   -0.00000002    0.00000351
     atom   17 type  2   force =     0.00001240    0.00000006    0.00002424
     atom   18 type  2   force =    -0.00001153    0.00000006    0.00002423
     atom   19 type  1   force =     0.00001172   -0.00001812    0.00000890
     atom   20 type  1   force =    -0.00001191   -0.00001765    0.00000890
     atom   21 type  2   force =     0.00000736   -0.00000008    0.00002376
     atom   22 type  2   force =    -0.00000864   -0.00000008    0.00002374
     atom   23 type  1   force =     0.00001172    0.00001814    0.00000890
     atom   24 type  1   force =    -0.00001191    0.00001767    0.00000890
     atom   25 type  1   force =     0.00000568   -0.00000002    0.00001400
     atom   26 type  1   force =    -0.00000601   -0.00000002    0.00001111
     atom   27 type  1   force =     0.00001328    0.00000002   -0.00000307
     atom   28 type  1   force =    -0.00001324    0.00000002   -0.00001634
     atom   29 type  2   force =     0.00000323    0.00000004   -0.00000803
     atom   30 type  2   force =    -0.00000362    0.00000004   -0.00002569
     atom   31 type  1   force =    -0.00000012   -0.00000212    0.00000162
     atom   32 type  1   force =     0.00000034    0.00000774   -0.00000548
     atom   33 type  2   force =     0.00002829   -0.00000004    0.00000065
     atom   34 type  2   force =    -0.00002942   -0.00000004   -0.00000618
     atom   35 type  1   force =    -0.00000012    0.00000211    0.00000163
     atom   36 type  1   force =     0.00000034   -0.00000775   -0.00000547
     atom   37 type  1   force =     0.00002214    0.00000001   -0.00000550
     atom   38 type  1   force =    -0.00002207    0.00000001   -0.00000680
     atom   39 type  1   force =     0.00001475   -0.00000001   -0.00000837
     atom   40 type  1   force =    -0.00001309   -0.00000001   -0.00000932
     atom   41 type  3   force =     0.00000065   -0.00000000    0.00000110
     atom   42 type  3   force =     0.00000063   -0.00000000   -0.00000201

     Total force =     0.069320     Total SCF correction =     0.000128

     BFGS Geometry Optimization
     Energy error            =      0.0E+00 Ry
     Gradient error          =      3.0E-02 Ry/Bohr

     number of scf cycles    =   1
     number of bfgs steps    =   0

     energy             new  =   -3430.2559668239 Ry

     new trust radius        =       0.0299365822 bohr
     new conv_thr            =       0.0000000010 Ry


ATOMIC_POSITIONS (crystal)
O            -0.0074092567        0.5000000000        0.2726915558
O             0.5005734026        0.5000000000        0.2733166577
O            -0.0005708746        0.0000000000        0.3076531843
O             0.4996943240        0.0000000000        0.3075004009
Ru            0.2496819771        0.0000000000        0.3547835803
Ru            0.7492909284        0.0000000000        0.3550494546
O             0.2468628990        0.3092141041        0.3582764836
O             0.7498336355        0.3085608670        0.3583780749
Ru           -0.0031983379        0.5000000000        0.3585162506
Ru            0.4971972241        0.5000000000        0.3506135469
O             0.2468628990        0.6907858958        0.3582764836
O             0.7498336355        0.6914391330        0.3583780749
O             0.0011686981        0.0000000000        0.4126382156
O             0.4988475356        0.0000000000        0.4125536264
O             0.0039777154        0.5000000000        0.4462857768
O             0.5038545271        0.5000000000        0.4414113753
Ru            0.0021750872        0.0000000000        0.5000010000
Ru            0.4997118776        0.0000000000        0.5000010000
O             0.2528065570        0.1933263083        0.5000010000
O             0.7499207157        0.1901936205        0.5000010000
Ru            0.2576170496        0.5000000000        0.5000010000
Ru            0.7448723211        0.5000000000        0.5000010000
O             0.2528065570        0.8066746917        0.5000010000
O             0.7499207157        0.8098073795        0.5000010000
O             0.0039777154        0.5000000000        0.5537152232
O             0.5038545271        0.5000000000        0.5585896247
O             0.0011686981        0.0000000000        0.5873627844
O             0.4988475356        0.0000000000        0.5874473736
Ru            0.2496819771        0.0000000000        0.6452174197
Ru            0.7492909284        0.0000000000        0.6449515454
O             0.2468628990        0.3092141041        0.6417245164
O             0.7498336355        0.3085608670        0.6416229251
Ru           -0.0031983379        0.5000000000        0.6414847494
Ru            0.4971972241        0.5000000000        0.6493874531
O             0.2468628990        0.6907858958        0.6417245164
O             0.7498336355        0.6914391330        0.6416229251
O            -0.0005708746        0.0000000000        0.6923488157
O             0.4996943240        0.0000000000        0.6925015991
O            -0.0074092567        0.5000000000        0.7273094442
O             0.5005734026        0.5000000000        0.7266843423
H             0.1262186276        0.5000000000        0.2514025645
H             0.1262186276        0.5000000000        0.7485974355



     Writing config-only to output data dir /storage/home/mgm6007/ixd4/Maria/Strain0_Files/RuO2-110-0-0/RuO2-110-0-0.save/
     NEW-OLD atomic charge density approx. for the potential

     Check: negative core charge=   -0.000001

     negative rho (up, down):  1.604E-04 0.000E+00

     add environment contribution to local potential
     Polarization accuracy = 4.0E-12, # of iterations =  43

     total cpu time spent up to now is    13505.5 secs

     per-process dynamical memory:   210.7 Mb

     Self-consistent Calculation

     iteration #  1     ecut=    50.00 Ry     beta= 0.70
     Davidson diagonalization with overlap
     ethr =  1.00E-06,  avg # of iterations =  4.0

     negative rho (up, down):  5.063E-04 0.000E+00

     add environment contribution to local potential
     Polarization accuracy = 2.1E-12, # of iterations =  44

     total cpu time spent up to now is    13777.1 secs

     total energy              =   -3430.25851464 Ry
     estimated scf accuracy    <       0.00496106 Ry
     electrostatic embedding   =      -0.03149256 Ry
     cavitation energy         =       0.02155299 Ry
     PV energy                 =      -0.07995932 Ry
     correction to one-el term =     192.98792282 Ry

     iteration #  2     ecut=    50.00 Ry     beta= 0.70
     Davidson diagonalization with overlap
     ethr =  1.37E-06,  avg # of iterations =  1.0

     negative rho (up, down):  5.490E-04 0.000E+00

     add environment contribution to local potential
     Polarization accuracy = 2.0E-12, # of iterations =  44

     total cpu time spent up to now is    13953.8 secs

     total energy              =   -3430.25860709 Ry
     estimated scf accuracy    <       0.00967945 Ry
     electrostatic embedding   =      -0.03154844 Ry
     cavitation energy         =       0.02155816 Ry
     PV energy                 =      -0.07992727 Ry
     correction to one-el term =     193.13168033 Ry

     iteration #  3     ecut=    50.00 Ry     beta= 0.70
     Davidson diagonalization with overlap
     ethr =  1.37E-06,  avg # of iterations =  1.0

     negative rho (up, down):  7.966E-04 0.000E+00

     add environment contribution to local potential
     Polarization accuracy = 2.3E-12, # of iterations =  44

     total cpu time spent up to now is    14148.8 secs

     total energy              =   -3430.25907157 Ry
     estimated scf accuracy    <       0.00079903 Ry
     electrostatic embedding   =      -0.03147644 Ry
     cavitation energy         =       0.02155274 Ry
     PV energy                 =      -0.07993808 Ry
     correction to one-el term =     193.13938024 Ry

     iteration #  4     ecut=    50.00 Ry     beta= 0.70
     Davidson diagonalization with overlap
     ethr =  2.21E-07,  avg # of iterations =  1.0

     negative rho (up, down):  1.059E-03 0.000E+00

     add environment contribution to local potential
     Polarization accuracy = 2.2E-12, # of iterations =  44

     total cpu time spent up to now is    14314.7 secs

     total energy              =   -3430.25907928 Ry
     estimated scf accuracy    <       0.00036221 Ry
     electrostatic embedding   =      -0.03141148 Ry
     cavitation energy         =       0.02155088 Ry
     PV energy                 =      -0.07993827 Ry
     correction to one-el term =     193.20661756 Ry

     iteration #  5     ecut=    50.00 Ry     beta= 0.70
     Davidson diagonalization with overlap
     ethr =  1.00E-07,  avg # of iterations =  1.0

     negative rho (up, down):  1.154E-03 0.000E+00

     add environment contribution to local potential
     Polarization accuracy = 5.3E-12, # of iterations =  44

     total cpu time spent up to now is    14508.9 secs

     total energy              =   -3430.25908433 Ry
     estimated scf accuracy    <       0.00013049 Ry
     electrostatic embedding   =      -0.03133170 Ry
     cavitation energy         =       0.02154856 Ry
     PV energy                 =      -0.07993958 Ry
     correction to one-el term =     193.28075237 Ry

     iteration #  6     ecut=    50.00 Ry     beta= 0.70
     Davidson diagonalization with overlap
     ethr =  3.60E-08,  avg # of iterations =  1.0

     negative rho (up, down):  1.115E-03 0.000E+00

     add environment contribution to local potential
     Polarization accuracy = 5.9E-12, # of iterations =  43

     total cpu time spent up to now is    15086.9 secs

     total energy              =   -3430.25908967 Ry
     estimated scf accuracy    <       0.00007426 Ry
     electrostatic embedding   =      -0.03126291 Ry
     cavitation energy         =       0.02154641 Ry
     PV energy                 =      -0.07994498 Ry
     correction to one-el term =     193.31925273 Ry

     iteration #  7     ecut=    50.00 Ry     beta= 0.70
     Davidson diagonalization with overlap
     ethr =  2.05E-08,  avg # of iterations =  1.0

     negative rho (up, down):  9.706E-04 0.000E+00

     add environment contribution to local potential
     Polarization accuracy = 7.1E-12, # of iterations =  43

     total cpu time spent up to now is    15280.4 secs

     total energy              =   -3430.25908770 Ry
     estimated scf accuracy    <       0.00002782 Ry
     electrostatic embedding   =      -0.03119706 Ry
     cavitation energy         =       0.02154509 Ry
     PV energy                 =      -0.07995250 Ry
     correction to one-el term =     193.33781238 Ry

     iteration #  8     ecut=    50.00 Ry     beta= 0.70
     Davidson diagonalization with overlap
     ethr =  7.68E-09,  avg # of iterations =  1.0

     negative rho (up, down):  8.180E-04 0.000E+00

     add environment contribution to local potential
     Polarization accuracy = 9.8E-12, # of iterations =  43

     total cpu time spent up to now is    15449.9 secs

     total energy              =   -3430.25908737 Ry
     estimated scf accuracy    <       0.00000557 Ry
     electrostatic embedding   =      -0.03110231 Ry
     cavitation energy         =       0.02154366 Ry
     PV energy                 =      -0.07996376 Ry
     correction to one-el term =     193.35474706 Ry

     iteration #  9     ecut=    50.00 Ry     beta= 0.70
     Davidson diagonalization with overlap
     ethr =  1.54E-09,  avg # of iterations =  2.0

     negative rho (up, down):  6.538E-04 0.000E+00

     add environment contribution to local potential
     Polarization accuracy = 1.5E-12, # of iterations =  44

     total cpu time spent up to now is    15629.6 secs

     total energy              =   -3430.25908696 Ry
     estimated scf accuracy    <       0.00000262 Ry
     electrostatic embedding   =      -0.03104760 Ry
     cavitation energy         =       0.02154349 Ry
     PV energy                 =      -0.07996961 Ry
     correction to one-el term =     193.35882560 Ry

     iteration # 10     ecut=    50.00 Ry     beta= 0.70
     Davidson diagonalization with overlap
     ethr =  7.25E-10,  avg # of iterations =  2.0

     negative rho (up, down):  4.591E-04 0.000E+00

     add environment contribution to local potential
     Polarization accuracy = 1.5E-12, # of iterations =  44

     total cpu time spent up to now is    15788.9 secs

     total energy              =   -3430.25908646 Ry
     estimated scf accuracy    <       0.00000071 Ry
     electrostatic embedding   =      -0.03100540 Ry
     cavitation energy         =       0.02154381 Ry
     PV energy                 =      -0.07997376 Ry
     correction to one-el term =     193.35766680 Ry

     iteration # 11     ecut=    50.00 Ry     beta= 0.70
     Davidson diagonalization with overlap
     ethr =  1.95E-10,  avg # of iterations =  2.0

     negative rho (up, down):  3.194E-04 0.000E+00

     add environment contribution to local potential
     Polarization accuracy = 9.4E-12, # of iterations =  43

     total cpu time spent up to now is    15972.5 secs

     total energy              =   -3430.25908603 Ry
     estimated scf accuracy    <       0.00000028 Ry
     electrostatic embedding   =      -0.03098178 Ry
     cavitation energy         =       0.02154482 Ry
     PV energy                 =      -0.07997588 Ry
     correction to one-el term =     193.34622952 Ry

     iteration # 12     ecut=    50.00 Ry     beta= 0.70
     Davidson diagonalization with overlap
     ethr =  7.86E-11,  avg # of iterations =  2.0

     negative rho (up, down):  2.530E-04 0.000E+00

     add environment contribution to local potential
     Polarization accuracy = 7.8E-12, # of iterations =  43

     total cpu time spent up to now is    16154.0 secs

     total energy              =   -3430.25908580 Ry
     estimated scf accuracy    <       0.00000031 Ry
     electrostatic embedding   =      -0.03097339 Ry
     cavitation energy         =       0.02154576 Ry
     PV energy                 =      -0.07997652 Ry
     correction to one-el term =     193.33412048 Ry

     iteration # 13     ecut=    50.00 Ry     beta= 0.70
     Davidson diagonalization with overlap
     ethr =  7.86E-11,  avg # of iterations =  1.0

     negative rho (up, down):  2.045E-04 0.000E+00

     add environment contribution to local potential
     Polarization accuracy = 5.9E-12, # of iterations =  43

     total cpu time spent up to now is    16336.3 secs

     total energy              =   -3430.25908564 Ry
     estimated scf accuracy    <       0.00000007 Ry
     electrostatic embedding   =      -0.03098077 Ry
     cavitation energy         =       0.02154647 Ry
     PV energy                 =      -0.07997568 Ry
     correction to one-el term =     193.32443593 Ry

     iteration # 14     ecut=    50.00 Ry     beta= 0.70
     Davidson diagonalization with overlap
     ethr =  1.98E-11,  avg # of iterations =  2.0

     negative rho (up, down):  1.853E-04 0.000E+00

     add environment contribution to local potential
     Polarization accuracy = 4.8E-12, # of iterations =  43

     total cpu time spent up to now is    16540.1 secs

     total energy              =   -3430.25908549 Ry
     estimated scf accuracy    <       0.00000002 Ry
     electrostatic embedding   =      -0.03098839 Ry
     cavitation energy         =       0.02154701 Ry
     PV energy                 =      -0.07997501 Ry
     correction to one-el term =     193.31641499 Ry

     iteration # 15     ecut=    50.00 Ry     beta= 0.70
     Davidson diagonalization with overlap
     ethr =  5.51E-12,  avg # of iterations =  7.0

     negative rho (up, down):  1.732E-04 0.000E+00

     add environment contribution to local potential
     Polarization accuracy = 4.4E-12, # of iterations =  43

     total cpu time spent up to now is    16720.0 secs

     total energy              =   -3430.25908543 Ry
     estimated scf accuracy    <       0.00000002 Ry
     electrostatic embedding   =      -0.03099409 Ry
     cavitation energy         =       0.02154723 Ry
     PV energy                 =      -0.07997473 Ry
     correction to one-el term =     193.31279651 Ry

     iteration # 16     ecut=    50.00 Ry     beta= 0.70
     Davidson diagonalization with overlap
     ethr =  4.62E-12,  avg # of iterations =  1.0

     negative rho (up, down):  1.668E-04 0.000E+00

     add environment contribution to local potential
     Polarization accuracy = 4.0E-12, # of iterations =  43

     total cpu time spent up to now is    16900.1 secs

     total energy              =   -3430.25908541 Ry
     estimated scf accuracy    <          3.1E-09 Ry
     electrostatic embedding   =      -0.03099576 Ry
     cavitation energy         =       0.02154735 Ry
     PV energy                 =      -0.07997482 Ry
     correction to one-el term =     193.31109148 Ry

     iteration # 17     ecut=    50.00 Ry     beta= 0.70
     Davidson diagonalization with overlap
     ethr =  8.51E-13,  avg # of iterations =  2.0

     negative rho (up, down):  1.625E-04 0.000E+00

     add environment contribution to local potential
[...]
     atom   28 type  1   force =    -0.03482583   -0.00000186   37.44685676
     atom   29 type  2   force =     0.13007176   -0.00000254  172.02459968
     atom   30 type  2   force =    -0.03429111   -0.00000252  172.16778325
     atom   31 type  1   force =     0.22998791   -1.56362580   61.41072922
     atom   32 type  1   force =    -0.17621156   -1.63506354   61.62440511
     atom   33 type  2   force =    -0.02109265    0.00000367  164.81275636
     atom   34 type  2   force =     0.06173966    0.00000302  171.86878069
     atom   35 type  1   force =     0.22998792    1.56362644   61.41072646
     atom   36 type  1   force =    -0.17621157    1.63506416   61.62440236
     atom   37 type  1   force =    -0.06908497   -0.00000037   93.17337328
     atom   38 type  1   force =     0.05010538   -0.00000037   93.20496434
     atom   39 type  1   force =    -3.00310228    0.00000019   94.80173202
     atom   40 type  1   force =     0.13342670    0.00000019  100.02824392
     atom   41 type  3   force =     2.64840273    0.00000002  -16.46082386
     atom   42 type  3   force =     2.64850350    0.00000002   16.46086123
     The local contribution  to forces
     atom    1 type  1   force =     1.15596333    0.00000000   94.54443154
     atom    2 type  1   force =    -0.03118712    0.00000000   98.65182521
     atom    3 type  1   force =     0.04133833   -0.00000000   92.06533799
     atom    4 type  1   force =    -0.02964453    0.00000000   92.09290575
     atom    5 type  2   force =    -0.12263037    0.00000000  172.10729362
     atom    6 type  2   force =     0.02779489   -0.00000000  172.20990603
     atom    7 type  1   force =    -0.26940527    1.54093395   61.52387126
     atom    8 type  1   force =     0.23302487    1.61505311   61.68106789
     atom    9 type  2   force =    -0.03221043   -0.00000000  164.80186852
     atom   10 type  2   force =    -0.01668034    0.00000000  171.94284933
     atom   11 type  1   force =    -0.26940527   -1.54093391   61.52387126
     atom   12 type  1   force =     0.23302487   -1.61505311   61.68106789
     atom   13 type  1   force =     0.04364931    0.00000000   37.37080158
     atom   14 type  1   force =     0.03122956    0.00000000   37.41384223
     atom   15 type  1   force =     0.12652922    0.00000000   24.59754888
     atom   16 type  1   force =     0.02940164    0.00000000   27.41255027
     atom   17 type  2   force =    -0.00246719    0.00000000   -0.00583812
     atom   18 type  2   force =    -0.02336228    0.00000000   -0.00585448
     atom   19 type  1   force =     0.12366589   -1.45913309   -0.00243688
     atom   20 type  1   force =    -0.12266308   -1.46764761   -0.00243736
     atom   21 type  2   force =    -0.81588407   -0.00000000   -0.00598184
     atom   22 type  2   force =     0.32033606   -0.00000000   -0.00598671
     atom   23 type  1   force =     0.12366553    1.45876551   -0.00243688
     atom   24 type  1   force =    -0.12266290    1.46728017   -0.00243736
     atom   25 type  1   force =     0.12651929    0.00000000  -24.59930532
     atom   26 type  1   force =     0.02939914    0.00000000  -27.41430326
     atom   27 type  1   force =     0.04364979   -0.00000000  -37.37253485
     atom   28 type  1   force =     0.03123045    0.00000000  -37.41557261
     atom   29 type  2   force =    -0.12262283    0.00000000 -172.11336830
     atom   30 type  2   force =     0.02778955   -0.00000000 -172.21598183
     atom   31 type  1   force =    -0.26937852    1.54093667  -61.52629690
     atom   32 type  1   force =     0.23300026    1.61505692  -61.68349860
     atom   33 type  2   force =    -0.03222015   -0.00000000 -164.80768168
     atom   34 type  2   force =    -0.01669101    0.00000000 -171.94855594
     atom   35 type  1   force =    -0.26937852   -1.54093664  -61.52629690
     atom   36 type  1   force =     0.23300026   -1.61505692  -61.68349860
     atom   37 type  1   force =     0.04133676    0.00000000  -92.06923960
     atom   38 type  1   force =    -0.02964414    0.00000000  -92.09680827
     atom   39 type  1   force =     1.15600149    0.00000000  -94.54596600
     atom   40 type  1   force =    -0.03119548    0.00000000  -98.65318565
     atom   41 type  3   force =    -2.58202385    0.00000000   16.43316309
     atom   42 type  3   force =    -2.58202385    0.00000000  -16.43316309
     The core correction contribution to forces
     atom    1 type  1   force =    -0.01771980    0.00000000   -0.00288236
     atom    2 type  1   force =     0.00021420    0.00000000   -0.01128821
     atom    3 type  1   force =    -0.00006016    0.00000000   -0.01092664
     atom    4 type  1   force =     0.00000431    0.00000000   -0.01094908
     atom    5 type  2   force =     0.00000000    0.00000000    0.00000000
     atom    6 type  2   force =     0.00000000    0.00000000    0.00000000
     atom    7 type  1   force =    -0.00061731   -0.00040202    0.00101787
     atom    8 type  1   force =     0.00082161   -0.00039352    0.00068660
     atom    9 type  2   force =     0.00000000    0.00000000    0.00000000
     atom   10 type  2   force =     0.00000000    0.00000000    0.00000000
     atom   11 type  1   force =    -0.00061731    0.00040202    0.00101787
     atom   12 type  1   force =     0.00082161    0.00039352    0.00068660
     atom   13 type  1   force =    -0.00002585    0.00000000   -0.00033304
     atom   14 type  1   force =    -0.00006884   -0.00000000   -0.00023078
     atom   15 type  1   force =     0.00007349    0.00000000   -0.00015294
     atom   16 type  1   force =    -0.00006381    0.00000000   -0.00395547
     atom   17 type  2   force =     0.00000000    0.00000000    0.00000000
     atom   18 type  2   force =     0.00000000    0.00000000    0.00000000
     atom   19 type  1   force =    -0.00028525    0.00025060   -0.00000200
     atom   20 type  1   force =     0.00019317    0.00028270   -0.00000200
     atom   21 type  2   force =     0.00000000    0.00000000    0.00000000
     atom   22 type  2   force =     0.00000000    0.00000000    0.00000000
     atom   23 type  1   force =    -0.00028524   -0.00025121   -0.00000200
     atom   24 type  1   force =     0.00019316   -0.00028330   -0.00000201
     atom   25 type  1   force =     0.00007344    0.00000000    0.00015077
     atom   26 type  1   force =    -0.00006379    0.00000000    0.00395344
     atom   27 type  1   force =    -0.00002585    0.00000000    0.00033073
     atom   28 type  1   force =    -0.00006885   -0.00000000    0.00022843
     atom   29 type  2   force =     0.00000000    0.00000000    0.00000000
     atom   30 type  2   force =     0.00000000    0.00000000    0.00000000
     atom   31 type  1   force =    -0.00061726   -0.00040209   -0.00101940
     atom   32 type  1   force =     0.00082159   -0.00039355   -0.00068818
     atom   33 type  2   force =     0.00000000    0.00000000    0.00000000
     atom   34 type  2   force =     0.00000000    0.00000000    0.00000000
     atom   35 type  1   force =    -0.00061726    0.00040209   -0.00101940
     atom   36 type  1   force =     0.00082159    0.00039355   -0.00068818
     atom   37 type  1   force =    -0.00006016    0.00000000    0.01092191
     atom   38 type  1   force =     0.00000431   -0.00000000    0.01094446
     atom   39 type  1   force =    -0.01772051    0.00000000    0.00287984
     atom   40 type  1   force =     0.00021418   -0.00000000    0.01128659
     atom   41 type  3   force =     0.00000000    0.00000000    0.00000000
     atom   42 type  3   force =     0.00000000    0.00000000    0.00000000
     The Hubbard contrib.    to forces
     atom    1 type  1   force =     0.00000000    0.00000000    0.00000000
     atom    2 type  1   force =     0.00000000    0.00000000    0.00000000
     atom    3 type  1   force =     0.00000000    0.00000000    0.00000000
     atom    4 type  1   force =     0.00000000    0.00000000    0.00000000
     atom    5 type  2   force =     0.00000000    0.00000000    0.00000000
     atom    6 type  2   force =     0.00000000    0.00000000    0.00000000
     atom    7 type  1   force =     0.00000000    0.00000000    0.00000000
     atom    8 type  1   force =     0.00000000    0.00000000    0.00000000
     atom    9 type  2   force =     0.00000000    0.00000000    0.00000000
     atom   10 type  2   force =     0.00000000    0.00000000    0.00000000
     atom   11 type  1   force =     0.00000000    0.00000000    0.00000000
     atom   12 type  1   force =     0.00000000    0.00000000    0.00000000
     atom   13 type  1   force =     0.00000000    0.00000000    0.00000000
     atom   14 type  1   force =     0.00000000    0.00000000    0.00000000
     atom   15 type  1   force =     0.00000000    0.00000000    0.00000000
     atom   16 type  1   force =     0.00000000    0.00000000    0.00000000
     atom   17 type  2   force =     0.00000000    0.00000000    0.00000000
     atom   18 type  2   force =     0.00000000    0.00000000    0.00000000
     atom   19 type  1   force =     0.00000000    0.00000000    0.00000000
     atom   20 type  1   force =     0.00000000    0.00000000    0.00000000
     atom   21 type  2   force =     0.00000000    0.00000000    0.00000000
     atom   22 type  2   force =     0.00000000    0.00000000    0.00000000
     atom   23 type  1   force =     0.00000000    0.00000000    0.00000000
     atom   24 type  1   force =     0.00000000    0.00000000    0.00000000
     atom   25 type  1   force =     0.00000000    0.00000000    0.00000000
     atom   26 type  1   force =     0.00000000    0.00000000    0.00000000
     atom   27 type  1   force =     0.00000000    0.00000000    0.00000000
     atom   28 type  1   force =     0.00000000    0.00000000    0.00000000
     atom   29 type  2   force =     0.00000000    0.00000000    0.00000000
     atom   30 type  2   force =     0.00000000    0.00000000    0.00000000
     atom   31 type  1   force =     0.00000000    0.00000000    0.00000000
     atom   32 type  1   force =     0.00000000    0.00000000    0.00000000
     atom   33 type  2   force =     0.00000000    0.00000000    0.00000000
     atom   34 type  2   force =     0.00000000    0.00000000    0.00000000
     atom   35 type  1   force =     0.00000000    0.00000000    0.00000000
     atom   36 type  1   force =     0.00000000    0.00000000    0.00000000
     atom   37 type  1   force =     0.00000000    0.00000000    0.00000000
     atom   38 type  1   force =     0.00000000    0.00000000    0.00000000
     atom   39 type  1   force =     0.00000000    0.00000000    0.00000000
     atom   40 type  1   force =     0.00000000    0.00000000    0.00000000
     atom   41 type  3   force =     0.00000000    0.00000000    0.00000000
     atom   42 type  3   force =     0.00000000    0.00000000    0.00000000
     The SCF correction term to forces
     atom    1 type  1   force =    -0.00000013   -0.00000000    0.00000061
     atom    2 type  1   force =    -0.00000019   -0.00000000    0.00000026
     atom    3 type  1   force =     0.00000179    0.00000000   -0.00000004
     atom    4 type  1   force =    -0.00000184   -0.00000000   -0.00000006
     atom    5 type  2   force =     0.00000007   -0.00000000   -0.00000065
     atom    6 type  2   force =     0.00000015   -0.00000000    0.00000080
     atom    7 type  1   force =    -0.00000004   -0.00000072    0.00000001
     atom    8 type  1   force =     0.00000014    0.00000031    0.00000038
     atom    9 type  2   force =     0.00000176    0.00000000    0.00000067
     atom   10 type  2   force =    -0.00000184    0.00000000    0.00000079
     atom   11 type  1   force =    -0.00000004    0.00000072    0.00000001
     atom   12 type  1   force =     0.00000014   -0.00000031    0.00000038
     atom   13 type  1   force =     0.00000119   -0.00000000    0.00000079
     atom   14 type  1   force =    -0.00000123    0.00000000    0.00000035
     atom   15 type  1   force =     0.00000061    0.00000000   -0.00000001
     atom   16 type  1   force =    -0.00000050    0.00000000    0.00000011
     atom   17 type  2   force =     0.00000106    0.00000000   -0.00000000
     atom   18 type  2   force =    -0.00000089    0.00000000    0.00000000
     atom   19 type  1   force =    -0.00000056   -0.00000052    0.00000000
     atom   20 type  1   force =     0.00000030   -0.00000083   -0.00000000
     atom   21 type  2   force =    -0.00000014    0.00000000   -0.00000000
     atom   22 type  2   force =     0.00000004   -0.00000000   -0.00000001
     atom   23 type  1   force =    -0.00000056    0.00000052    0.00000000
     atom   24 type  1   force =     0.00000030    0.00000083   -0.00000000
     atom   25 type  1   force =     0.00000061    0.00000000    0.00000001
     atom   26 type  1   force =    -0.00000050    0.00000000   -0.00000011
     atom   27 type  1   force =     0.00000119   -0.00000000   -0.00000079
     atom   28 type  1   force =    -0.00000123   -0.00000000   -0.00000035
     atom   29 type  2   force =     0.00000007   -0.00000000    0.00000065
     atom   30 type  2   force =     0.00000015   -0.00000000   -0.00000080
     atom   31 type  1   force =    -0.00000004   -0.00000072   -0.00000001
     atom   32 type  1   force =     0.00000014    0.00000031   -0.00000038
     atom   33 type  2   force =     0.00000176    0.00000000   -0.00000067
     atom   34 type  2   force =    -0.00000184    0.00000000   -0.00000079
     atom   35 type  1   force =    -0.00000004    0.00000072   -0.00000001
     atom   36 type  1   force =     0.00000014   -0.00000031   -0.00000038
     atom   37 type  1   force =     0.00000179    0.00000000    0.00000005
     atom   38 type  1   force =    -0.00000184   -0.00000000    0.00000006
     atom   39 type  1   force =    -0.00000013   -0.00000000   -0.00000060
     atom   40 type  1   force =    -0.00000019   -0.00000000   -0.00000026
     atom   41 type  3   force =     0.00000008   -0.00000000    0.00000000
     atom   42 type  3   force =     0.00000008   -0.00000000   -0.00000000

     Total force =     0.000317     Total SCF correction =     0.000007
     Energy error            =      2.6E-07 Ry
     Gradient error          =      8.7E-05 Ry/Bohr

     bfgs converged in  21 scf cycles and  20 bfgs steps
     (criteria: energy <  1.0E-04 Ry, force <  1.0E-04 Ry/Bohr)

     End of BFGS Geometry Optimization

     Final energy             =   -3430.2609102388 Ry

     File /storage/home/mgm6007/ixd4/Maria/Strain0_Files/RuO2-110-0-0/RuO2-110-0-0.bfgs deleted, as requested
Begin final coordinates

ATOMIC_POSITIONS (crystal)
O            -0.0083459204        0.5000000000        0.2723387843
O             0.4967576532        0.5000000000        0.2728021898
O            -0.0000946350        0.0000000000        0.3069673201
O             0.4994971041        0.0000000000        0.3067316710
Ru            0.2498862367        0.0000000000        0.3543466469
Ru            0.7494080962        0.0000000000        0.3543182034
O             0.2480752117        0.3095101564        0.3583184142
O             0.7509213740        0.3095820869        0.3580888258
Ru           -0.0006409253        0.5000000000        0.3582402396
Ru            0.5001828603        0.5000000000        0.3499668720
O             0.2480752117        0.6904898435        0.3583184142
O             0.7509213740        0.6904179131        0.3580888258
O            -0.0000982217        0.0000000000        0.4121347770
O             0.5001418188        0.0000000000        0.4121344023
O             0.0028994514        0.5000000000        0.4464274574
O             0.5019156402        0.5000000000        0.4415228036
Ru            0.0004718627        0.0000000000        0.5000010000
Ru            0.5005645416        0.0000000000        0.5000010000
O             0.2513018691        0.1900564945        0.5000010000
O             0.7497207215        0.1901761358        0.5000010000
Ru            0.2576466092        0.5000000000        0.5000010000
Ru            0.7448324680        0.5000000000        0.5000010000
O             0.2513018691        0.8099445055        0.5000010000
O             0.7497207215        0.8098248642        0.5000010000
O             0.0028994514        0.5000000000        0.5535735426
O             0.5019156402        0.5000000000        0.5584781964
O            -0.0000982217        0.0000000000        0.5878662230
O             0.5001418188        0.0000000000        0.5878665977
Ru            0.2498862367        0.0000000000        0.6456543531
Ru            0.7494080962        0.0000000000        0.6456827966
O             0.2480752117        0.3095101564        0.6416825858
O             0.7509213740        0.3095820869        0.6419121742
Ru           -0.0006409253        0.5000000000        0.6417607604
Ru            0.5001828603        0.5000000000        0.6500341280
O             0.2480752117        0.6904898435        0.6416825858
O             0.7509213740        0.6904179131        0.6419121742
O            -0.0000946350        0.0000000000        0.6930346799
O             0.4994971041        0.0000000000        0.6932703290
O            -0.0083459204        0.5000000000        0.7276622157
O             0.4967576532        0.5000000000        0.7271988102
H             0.1253523388        0.5000000000        0.2507214291
H             0.1253523388        0.5000000000        0.7492785709
End final coordinates



     Writing all to output data dir /storage/home/mgm6007/ixd4/Maria/Strain0_Files/RuO2-110-0-0/RuO2-110-0-0.save/
 
     init_run     :    745.15s CPU   1103.26s WALL (       1 calls)
     electrons    :  52177.92s CPU  94921.12s WALL (      21 calls)
     update_pot   :     34.64s CPU     34.66s WALL (      20 calls)
     forces       :     33.62s CPU     33.79s WALL (      21 calls)

     Called by init_run:
     wfcinit      :      0.51s CPU      0.51s WALL (       1 calls)
     potinit      :    551.05s CPU    784.99s WALL (       1 calls)
     hinit0       :    193.12s CPU    317.24s WALL (       1 calls)

     Called by electrons:
     c_bands      :    483.26s CPU    483.83s WALL (     398 calls)
     sum_band     :    110.04s CPU    110.30s WALL (     398 calls)
     v_of_rho     :    109.91s CPU    110.06s WALL (     401 calls)
     newd         :     27.08s CPU     27.10s WALL (     401 calls)
     PAW_pot      :     48.30s CPU     48.33s WALL (     421 calls)
     mix_rho      :    293.05s CPU    293.36s WALL (     398 calls)

     Called by c_bands:
     init_us_2    :      4.98s CPU      4.99s WALL (     817 calls)
     init_us_2:cp :      4.97s CPU      4.99s WALL (     817 calls)
     cegterg      :    464.56s CPU    465.07s WALL (     398 calls)

     Called by *egterg:
     cdiaghg      :     55.11s CPU     55.19s WALL (    1129 calls)
     h_psi        :    248.08s CPU    248.32s WALL (    1168 calls)
     s_psi        :     36.09s CPU     36.14s WALL (    1168 calls)
     g_psi        :      1.21s CPU      1.21s WALL (     769 calls)

     Called by h_psi:
     h_psi:calbec :     35.78s CPU     35.81s WALL (    1168 calls)
     vloc_psi     :    172.73s CPU    172.87s WALL (    1168 calls)
     add_vuspsi   :     36.42s CPU     36.49s WALL (    1168 calls)

     General routines
     calbec       :     56.60s CPU     56.69s WALL (    1670 calls)
     fft          :  13285.04s CPU  13286.52s WALL (    5440 calls)
     ffts         :    104.69s CPU    104.73s WALL (  161942 calls)
     fftw         :    147.73s CPU    147.79s WALL (  452138 calls)
     interpolate  :  13250.39s CPU  13251.86s WALL (     401 calls)
 
     Parallel routines
 
     Environ routines
 
     PWSCF        :     15h28m CPU   1d 4h 5m WALL

 
   This run was terminated on:  20:18: 1  19Jul2023            

=------------------------------------------------------------------------------=
   JOB DONE.
=------------------------------------------------------------------------------=
