
     Program PWSCF v.7.2 starts on 23Jul2023 at 14:23:20 
        Git branch: heads/qe-7.2
        Last git commit: b4c5e8deeb7d1863e7553a87b45f8d22c21926a5
        Last git commit date: Mon Mar 27 16:12:09 2023 +0000
        Last git commit subject: Merge branch 'merge_fix_hubbard' into 'develop'

     This program is part of the open-source Quantum ESPRESSO suite
     for quantum simulation of materials; please cite
         "P. Giannozzi et al., J. Phys.:Condens. Matter 21 395502 (2009);
         "P. Giannozzi et al., J. Phys.:Condens. Matter 29 465901 (2017);
         "P. Giannozzi et al., J. Chem. Phys. 152 154105 (2020);
          URL http://www.quantum-espresso.org", 
     in publications or presentations arising from this work. More details at
     http://www.quantum-espresso.org/quote

     Parallel version (MPI), running on    20 processors

     MPI processes distributed on     1 nodes
     115104 MiB available memory on the printing compute node when the environment starts
 
     Reading input from RuO2-110-0-02345.in

     Current dimensions of program PWSCF are:
     Max number of different atomic species (ntypx) = 10
     Max number of k-points (npk) =  40000
     Max angular momentum in pseudopotentials (lmaxx) =  4
 
     Reading input from environ.in:
     * Environ restarting
     * setting up water environment
     * using electronic solvent mode
     * setting boundary derivatives method to SCCS default
     

     File /storage/home/mgm6007/ixd4/Maria/Strain2_Files/RuO2-110-0-02345/RuO2-110-0-02345.update deleted, as requested

     File /storage/home/mgm6007/ixd4/Maria/Strain2_Files/RuO2-110-0-02345/RuO2-110-0-02345.bfgs deleted, as requested
     file O.pbe-n-kjpaw_psl.0.1.UPF: wavefunction(s)  2P renormalized
     Message from routine setup:
     using ibrav=0 with symmetry is DISCOURAGED, use correct ibrav instead
 
     R & G space division:  proc/nbgrp/npool/nimage =      20
     Subspace diagonalization in iterative solution of the eigenvalue problem:
     one sub-group per band group will be used
     scalapack distributed-memory algorithm (size of sub-group:  2*  2 procs)

 
     Parallelization info
     --------------------
     sticks:   dense  smooth     PW     G-vecs:    dense   smooth      PW
     Min         279     111     29                55537    14039    1893
     Max         280     112     30                55546    14052    1904
     Sum        5595    2237    595              1110843   280917   37967
 
     Using Slab Decomposition
 


     bravais-lattice index     =            0
     lattice parameter (alat)  =      12.2467  a.u.
     unit-cell volume          =    5883.2137 (a.u.)^3
     number of atoms/cell      =           50
     number of atomic types    =            3
     number of electrons       =       370.00
     number of Kohn-Sham states=          222
     kinetic-energy cutoff     =      50.0000  Ry
     charge density cutoff     =     500.0000  Ry
     scf convergence threshold =      1.0E-09
     mixing beta               =       0.7000
     number of iterations used =            8  local-TF  mixing
     energy convergence thresh.=      1.0E-04
     force convergence thresh. =      1.0E-04
     Exchange-correlation= PBE
                           (   1   4   3   4   0   0   0)
     nstep                     =          200


     ================================================================================
 
                                  Environ Setup Summary

     ================================================================================
 
     Please cite

          O. Andreussi, I. Dabo and N. Marzari, J. Chem. Phys. 136, 064102 (2012)

     in publications or presentations arising from this work.

     ================================================================================
 
     Parameters
     ==========

     compensation onset threshold      =               0.1000E+00
     static permittivity               =                    78.30
     surface tension in input (dyn/cm) =                    47.90
     surface tension in internal units =               0.6153E-04
     external pressure in input (GPa)  =                    -0.36
     external pressure in inter. units =              -0.2447E-04

     Solvent Boundary
     ================

     solvent mode                      =               electronic
     derivatives method                =                    chain
     numerical core for derivatives    =                      fft
     switching function adopted        =                     SCCS
     density limit for vacuum region   =               0.5000E-02
     density limit for bulk solvent    =               0.1000E-03

     Electrostatic Setup
     ===================

     electrostatic problem to solve    =              generalized
     numerical solver adopted          =                       cg
     type of auxiliary density adopted =                     none
     numerical core for poisson        =                      fft
     type of pbc corrections           =                parabolic
     numerical core for corrections    =                      1da

     ================================================================================
 

     celldm(1)=  12.246684  celldm(2)=   0.000000  celldm(3)=   0.000000
     celldm(4)=   0.000000  celldm(5)=   0.000000  celldm(6)=   0.000000

     crystal axes: (cart. coord. in units of alat)
               a(1) = (   1.000000   0.000000   0.000000 )  
               a(2) = (   0.000000   0.937861   0.000000 )  
               a(3) = (   0.000000   0.000000   3.415235 )  

     reciprocal axes: (cart. coord. in units 2 pi/alat)
               b(1) = (  1.000000  0.000000  0.000000 )  
               b(2) = (  0.000000  1.066256  0.000000 )  
               b(3) = (  0.000000  0.000000  0.292806 )  


     PseudoPot. # 1 for O  read from file:
     /gpfs/group/ixd4/default/Simon/pseudopotentials/materialscloud/SSSP_1.3.0_PBE_efficiency/O.pbe-n-kjpaw_psl.0.1.UPF
     MD5 check sum: 0234752ac141de4415c5fc33072bef88
     Pseudo is Projector augmented-wave + core cor, Zval =  6.0
     Generated using "atomic" code by A. Dal Corso  v.5.0.99 svn rev. 10869
     Shape of augmentation charge: BESSEL
     Using radial grid of 1095 points,  4 beta functions with: 
                l(1) =   0
                l(2) =   0
                l(3) =   1
                l(4) =   1
     Q(r) pseudized with 0 coefficients 


     PseudoPot. # 2 for Ru read from file:
     /gpfs/group/ixd4/default/Simon/pseudopotentials/materialscloud/SSSP_1.3.0_PBE_efficiency/Ru_ONCV_PBE-1.0.oncvpsp.upf
     MD5 check sum: be037bb81c227cfb9b1461a9f099f4bd
     Pseudo is Norm-conserving, Zval = 16.0
     Generated using ONCVPSP code by D. R. Hamann
     Using radial grid of 1458 points,  6 beta functions with: 
                l(1) =   0
                l(2) =   0
                l(3) =   1
                l(4) =   1
                l(5) =   2
                l(6) =   2

     PseudoPot. # 3 for H  read from file:
     /gpfs/group/ixd4/default/Simon/pseudopotentials/materialscloud/SSSP_1.3.0_PBE_efficiency/H.pbe-rrkjus_psl.1.0.0.UPF
     MD5 check sum: f52b6d4d1c606e5624b1dc7b2218f220
     Pseudo is Ultrasoft, Zval =  1.0
     Generated using "atomic" code by A. Dal Corso  v.5.1
     Using radial grid of  929 points,  2 beta functions with: 
                l(1) =   0
                l(2) =   0
     Q(r) pseudized with 0 coefficients 


     atomic species   valence    mass     pseudopotential
        O              6.00    15.99940     O ( 1.00)
        Ru            16.00   101.07000     Ru( 1.00)
        H              1.00     1.00794     H ( 1.00)

      4 Sym. Ops. (no inversion) found



   Cartesian axes

     site n.     atom                  positions (alat units)
         1           O   tau(   1) = (   0.0155931   0.4689304   0.9034325  )
         2           O   tau(   2) = (   0.4783056   0.4689304   0.9119220  )
         3           O   tau(   3) = (  -0.0031764   0.0000000   0.9859794  )
         4           O   tau(   4) = (   0.4985621   0.0000000   0.9863947  )
         5           Ru  tau(   5) = (   0.2480582   0.0000000   1.2318389  )
         6           Ru  tau(   6) = (   0.7480161   0.0000000   1.2284526  )
         7           O   tau(   7) = (   0.2460276   0.2893942   1.2175730  )
         8           O   tau(   8) = (   0.7496441   0.2905575   1.2088349  )
         9           Ru  tau(   9) = (  -0.0015510   0.4689304   1.2188166  )
        10           Ru  tau(  10) = (   0.4978261   0.4689304   1.1923131  )
        11           O   tau(  11) = (   0.2460276   0.6484667   1.2175730  )
        12           O   tau(  12) = (   0.7496441   0.6473033   1.2088349  )
        13           O   tau(  13) = (  -0.0025069   0.0000000   1.4086856  )
        14           O   tau(  14) = (   0.4991157   0.0000000   1.4088432  )
        15           O   tau(  15) = (  -0.0012228   0.4689304   1.5226078  )
        16           O   tau(  16) = (   0.5000257   0.4689304   1.5065577  )
        17           Ru  tau(  17) = (  -0.0009600   0.0000000   1.7076210  )
        18           Ru  tau(  18) = (   0.4993454   0.0000000   1.7076210  )
        19           O   tau(  19) = (   0.2501280   0.1768897   1.7076210  )
        20           O   tau(  20) = (   0.7490978   0.1769486   1.7076210  )
        21           Ru  tau(  21) = (   0.2538462   0.4689304   1.7076210  )
        22           Ru  tau(  22) = (   0.7443773   0.4689304   1.7076210  )
        23           O   tau(  23) = (   0.2501280   0.7609721   1.7076210  )
        24           O   tau(  24) = (   0.7490978   0.7609132   1.7076210  )
        25           O   tau(  25) = (  -0.0012228   0.4689304   1.8926309  )
        26           O   tau(  26) = (   0.5000257   0.4689304   1.9086809  )
        27           O   tau(  27) = (  -0.0025069   0.0000000   2.0065531  )
        28           O   tau(  28) = (   0.4991157   0.0000000   2.0063954  )
        29           Ru  tau(  29) = (   0.2480582   0.0000000   2.1833997  )
        30           Ru  tau(  30) = (   0.7480161   0.0000000   2.1867860  )
        31           O   tau(  31) = (   0.2460276   0.2893942   2.1976656  )
        32           O   tau(  32) = (   0.7496441   0.2905575   2.2064037  )
        33           Ru  tau(  33) = (  -0.0015510   0.4689304   2.1964220  )
        34           Ru  tau(  34) = (   0.4978261   0.4689304   2.2229256  )
        35           O   tau(  35) = (   0.2460276   0.6484667   2.1976656  )
        36           O   tau(  36) = (   0.7496441   0.6473033   2.2064037  )
        37           O   tau(  37) = (  -0.0031764   0.0000000   2.4292627  )
        38           O   tau(  38) = (   0.4985621   0.0000000   2.4288473  )
        39           O   tau(  39) = (   0.0155931   0.4689304   2.5118061  )
        40           O   tau(  40) = (   0.4783056   0.4689304   2.5033166  )
        41           H   tau(  41) = (   0.1656865   0.4689304   0.8775912  )
        42           H   tau(  42) = (   0.1656865   0.4689304   2.5376440  )
        43           H   tau(  43) = (  -0.0057352   0.1268976   0.9004918  )
        44           H   tau(  44) = (  -0.0057352   0.1268976   2.5147434  )
        45           H   tau(  45) = (   0.4987499   0.1253061   0.8993460  )
        46           H   tau(  46) = (   0.4987499   0.1253061   2.5158893  )
        47           H   tau(  47) = (  -0.0057352   0.8109633   0.9004918  )
        48           H   tau(  48) = (  -0.0057352   0.8109633   2.5147434  )
        49           H   tau(  49) = (   0.4987499   0.8125547   0.8993460  )
        50           H   tau(  50) = (   0.4987499   0.8125547   2.5158893  )

     number of k points=     1  Marzari-Vanderbilt smearing, width (Ry)=  0.0300
                       cart. coord. in units 2pi/alat
        k(    1) = (   0.2500000   0.2665641   0.0000000), wk =   2.0000000

     Dense  grid:  1110843 G-vectors     FFT dimensions: (  90,  81, 300)

     Smooth grid:   280917 G-vectors     FFT dimensions: (  60,  54, 192)

     Estimated max dynamical RAM per process >     170.51 MB

     Estimated total dynamical RAM >       3.33 GB

     Check: negative core charge=   -0.000001

     Initial potential from superposition of free atoms

     starting charge     369.9932, renormalised to     370.0000

     add environment contribution to local potential
     Polarization accuracy = 2.6E-12, # of iterations =  26

     negative rho (up, down):  2.791E-05 0.000E+00
     Starting wfcs are  242 randomized atomic wfcs
     Checking if some PAW data can be deallocated... 

     total cpu time spent up to now is      708.0 secs

     per-process dynamical memory:   139.8 Mb

     Self-consistent Calculation

     iteration #  1     ecut=    50.00 Ry     beta= 0.70
     Davidson diagonalization with overlap
     ethr =  1.00E-02,  avg # of iterations =  2.0

     total cpu time spent up to now is      876.1 secs

     total energy              =   -3437.98782046 Ry
     estimated scf accuracy    <       9.19201499 Ry
     electrostatic embedding   =      -0.00171867 Ry
     cavitation energy         =       0.01884255 Ry
     PV energy                 =      -0.08822484 Ry
     correction to one-el term =     224.52560130 Ry

     iteration #  2     ecut=    50.00 Ry     beta= 0.70
     Davidson diagonalization with overlap
     ethr =  2.48E-03,  avg # of iterations =  2.0

     total cpu time spent up to now is     1057.6 secs

     total energy              =   -3439.83542054 Ry
     estimated scf accuracy    <       2.91424194 Ry
     electrostatic embedding   =      -0.00293983 Ry
     cavitation energy         =       0.01869732 Ry
     PV energy                 =      -0.08938341 Ry
     correction to one-el term =     224.52939641 Ry

     iteration #  3     ecut=    50.00 Ry     beta= 0.70
     Davidson diagonalization with overlap
     ethr =  7.88E-04,  avg # of iterations =  2.0

     total cpu time spent up to now is     1196.9 secs

     total energy              =   -3439.97405088 Ry
     estimated scf accuracy    <       0.71697922 Ry
     electrostatic embedding   =      -0.00348169 Ry
     cavitation energy         =       0.01873766 Ry
     PV energy                 =      -0.08978241 Ry
     correction to one-el term =     224.53088779 Ry

     iteration #  4     ecut=    50.00 Ry     beta= 0.70
     Davidson diagonalization with overlap
     ethr =  1.94E-04,  avg # of iterations =  5.0

     total cpu time spent up to now is     1333.0 secs

     total energy              =   -3440.03803625 Ry
     estimated scf accuracy    <       1.55207370 Ry
     electrostatic embedding   =      -0.00373997 Ry
     cavitation energy         =       0.01891710 Ry
     PV energy                 =      -0.08949733 Ry
     correction to one-el term =     224.53124932 Ry

     iteration #  5     ecut=    50.00 Ry     beta= 0.70
     Davidson diagonalization with overlap
     ethr =  1.94E-04,  avg # of iterations =  1.0

     total cpu time spent up to now is     1481.2 secs

     total energy              =   -3439.99738154 Ry
     estimated scf accuracy    <       0.80431224 Ry
     electrostatic embedding   =      -0.00405614 Ry
     cavitation energy         =       0.01921580 Ry
     PV energy                 =      -0.08918085 Ry
     correction to one-el term =     224.53174665 Ry

     iteration #  6     ecut=    50.00 Ry     beta= 0.70
     Davidson diagonalization with overlap
     ethr =  1.94E-04,  avg # of iterations =  1.0

     total cpu time spent up to now is     1647.5 secs

     total energy              =   -3439.98464504 Ry
     estimated scf accuracy    <       0.30782631 Ry
     electrostatic embedding   =      -0.00434829 Ry
     cavitation energy         =       0.02007053 Ry
     PV energy                 =      -0.08780309 Ry
     correction to one-el term =     224.53170402 Ry

     iteration #  7     ecut=    50.00 Ry     beta= 0.70
     Davidson diagonalization with overlap
     ethr =  8.32E-05,  avg # of iterations =  2.0

     total cpu time spent up to now is     1809.5 secs

     total energy              =   -3439.97629716 Ry
     estimated scf accuracy    <       0.18375113 Ry
     electrostatic embedding   =      -0.00423128 Ry
     cavitation energy         =       0.02063208 Ry
     PV energy                 =      -0.08633949 Ry
     correction to one-el term =     224.53079537 Ry

     iteration #  8     ecut=    50.00 Ry     beta= 0.70
     Davidson diagonalization with overlap
     ethr =  4.97E-05,  avg # of iterations = 10.0

     add environment contribution to local potential
     Polarization accuracy = 4.1E-12, # of iterations =  43

     total cpu time spent up to now is     1966.9 secs

     total energy              =   -3439.97432969 Ry
     estimated scf accuracy    <       0.04608302 Ry
     electrostatic embedding   =      -0.00389081 Ry
     cavitation energy         =       0.02137976 Ry
     PV energy                 =      -0.08457446 Ry
     correction to one-el term =     224.52917817 Ry

     iteration #  9     ecut=    50.00 Ry     beta= 0.70
     Davidson diagonalization with overlap
     ethr =  1.25E-05,  avg # of iterations = 10.0

     total cpu time spent up to now is     2115.4 secs

     total energy              =   -3440.04014073 Ry
     estimated scf accuracy    <       0.21134313 Ry
     electrostatic embedding   =      -0.07727563 Ry
     cavitation energy         =       0.02116203 Ry
     PV energy                 =      -0.08427779 Ry
     correction to one-el term =     165.65738559 Ry

     iteration # 10     ecut=    50.00 Ry     beta= 0.70
     Davidson diagonalization with overlap
     ethr =  1.25E-05,  avg # of iterations =  1.0

     total cpu time spent up to now is     2305.8 secs

     total energy              =   -3440.03240116 Ry
     estimated scf accuracy    <       0.13182432 Ry
     electrostatic embedding   =      -0.07763961 Ry
     cavitation energy         =       0.02113883 Ry
     PV energy                 =      -0.08426262 Ry
     correction to one-el term =     165.65853022 Ry

     iteration # 11     ecut=    50.00 Ry     beta= 0.70
     Davidson diagonalization with overlap
     ethr =  1.25E-05,  avg # of iterations =  1.0

     add environment contribution to local potential
     Polarization accuracy = 3.0E-12, # of iterations =  42

     total cpu time spent up to now is     2478.2 secs

     total energy              =   -3440.02975336 Ry
     estimated scf accuracy    <       0.03532595 Ry
     electrostatic embedding   =      -0.07841045 Ry
     cavitation energy         =       0.02100631 Ry
     PV energy                 =      -0.08429649 Ry
     correction to one-el term =     165.66104827 Ry

     iteration # 12     ecut=    50.00 Ry     beta= 0.70
     Davidson diagonalization with overlap
     ethr =  9.55E-06,  avg # of iterations =  4.0

     add environment contribution to local potential
     Polarization accuracy = 2.5E-12, # of iterations =  42

     total cpu time spent up to now is     2626.0 secs

     total energy              =   -3440.03184626 Ry
     estimated scf accuracy    <       0.01527930 Ry
     electrostatic embedding   =      -0.08197041 Ry
     cavitation energy         =       0.02087386 Ry
     PV energy                 =      -0.08437082 Ry
     correction to one-el term =     167.34674037 Ry

     iteration # 13     ecut=    50.00 Ry     beta= 0.70
     Davidson diagonalization with overlap
     ethr =  4.13E-06,  avg # of iterations =  6.0

     negative rho (up, down):  4.990E-04 0.000E+00

     add environment contribution to local potential
     Polarization accuracy = 1.7E-12, # of iterations =  42

     total cpu time spent up to now is     2778.3 secs

     total energy              =   -3440.03679115 Ry
     estimated scf accuracy    <       0.01011151 Ry
     electrostatic embedding   =      -0.08807683 Ry
     cavitation energy         =       0.02078429 Ry
     PV energy                 =      -0.08437345 Ry
     correction to one-el term =     168.24293951 Ry

     iteration # 14     ecut=    50.00 Ry     beta= 0.70
     Davidson diagonalization with overlap
     c_bands:  1 eigenvalues not converged
     ethr =  2.73E-06,  avg # of iterations = 20.0

     negative rho (up, down):  3.113E-04 0.000E+00

     add environment contribution to local potential
     Polarization accuracy = 8.8E-12, # of iterations =  41

     total cpu time spent up to now is     2923.6 secs

     total energy              =   -3440.03739348 Ry
     estimated scf accuracy    <       0.03943495 Ry
     electrostatic embedding   =      -0.09175709 Ry
     cavitation energy         =       0.02069127 Ry
     PV energy                 =      -0.08444272 Ry
     correction to one-el term =     169.30687646 Ry

     iteration # 15     ecut=    50.00 Ry     beta= 0.70
     Davidson diagonalization with overlap
     ethr =  2.73E-06,  avg # of iterations =  3.0

     negative rho (up, down):  1.057E-05 0.000E+00

     add environment contribution to local potential
     Polarization accuracy = 8.7E-12, # of iterations =  41

     total cpu time spent up to now is     3060.9 secs

     total energy              =   -3440.03666124 Ry
     estimated scf accuracy    <       0.02887453 Ry
     electrostatic embedding   =      -0.08968945 Ry
     cavitation energy         =       0.02064725 Ry
     PV energy                 =      -0.08452873 Ry
     correction to one-el term =     170.01377098 Ry

     iteration # 16     ecut=    50.00 Ry     beta= 0.70
     Davidson diagonalization with overlap
     ethr =  2.73E-06,  avg # of iterations =  3.0

     add environment contribution to local potential
     Polarization accuracy = 7.7E-12, # of iterations =  41

     total cpu time spent up to now is     3215.0 secs

     total energy              =   -3440.03672681 Ry
     estimated scf accuracy    <       0.00781130 Ry
     electrostatic embedding   =      -0.08664434 Ry
     cavitation energy         =       0.02064659 Ry
     PV energy                 =      -0.08458348 Ry
     correction to one-el term =     170.54175313 Ry

     iteration # 17     ecut=    50.00 Ry     beta= 0.70
     Davidson diagonalization with overlap
     ethr =  2.11E-06,  avg # of iterations =  6.0

     negative rho (up, down):  3.555E-08 0.000E+00

     add environment contribution to local potential
     Polarization accuracy = 7.3E-12, # of iterations =  41

     total cpu time spent up to now is     3380.1 secs

     total energy              =   -3440.03742702 Ry
     estimated scf accuracy    <       0.00039782 Ry
     electrostatic embedding   =      -0.08204795 Ry
     cavitation energy         =       0.02063032 Ry
     PV energy                 =      -0.08466177 Ry
     correction to one-el term =     171.31128258 Ry

     iteration # 18     ecut=    50.00 Ry     beta= 0.70
     Davidson diagonalization with overlap
     ethr =  1.08E-07,  avg # of iterations =  6.0

     negative rho (up, down):  4.213E-05 0.000E+00

     add environment contribution to local potential
     Polarization accuracy = 6.6E-12, # of iterations =  41

     total cpu time spent up to now is     3537.6 secs

     total energy              =   -3440.03755138 Ry
     estimated scf accuracy    <       0.00028126 Ry
     electrostatic embedding   =      -0.08005286 Ry
     cavitation energy         =       0.02060606 Ry
     PV energy                 =      -0.08469648 Ry
     correction to one-el term =     171.86877202 Ry

     iteration # 19     ecut=    50.00 Ry     beta= 0.70
     Davidson diagonalization with overlap
     ethr =  7.60E-08,  avg # of iterations = 11.0

     negative rho (up, down):  8.174E-04 0.000E+00

     add environment contribution to local potential
     Polarization accuracy = 4.8E-12, # of iterations =  41

     total cpu time spent up to now is     3711.6 secs

     total energy              =   -3440.03758221 Ry
     estimated scf accuracy    <       0.00009072 Ry
     electrostatic embedding   =      -0.07898161 Ry
     cavitation energy         =       0.02059104 Ry
     PV energy                 =      -0.08471202 Ry
     correction to one-el term =     172.18173596 Ry

     iteration # 20     ecut=    50.00 Ry     beta= 0.70
     Davidson diagonalization with overlap
     ethr =  2.45E-08,  avg # of iterations =  5.0

     negative rho (up, down):  7.553E-04 0.000E+00

     add environment contribution to local potential
     Polarization accuracy = 4.5E-12, # of iterations =  41

     total cpu time spent up to now is     3870.8 secs

     total energy              =   -3440.03760811 Ry
     estimated scf accuracy    <       0.00001349 Ry
     electrostatic embedding   =      -0.07739808 Ry
     cavitation energy         =       0.02057893 Ry
     PV energy                 =      -0.08472015 Ry
     correction to one-el term =     172.51723420 Ry

     iteration # 21     ecut=    50.00 Ry     beta= 0.70
     Davidson diagonalization with overlap
     ethr =  3.65E-09,  avg # of iterations =  2.0

     negative rho (up, down):  4.490E-04 0.000E+00

     add environment contribution to local potential
     Polarization accuracy = 4.8E-12, # of iterations =  41

     total cpu time spent up to now is     4021.9 secs

     total energy              =   -3440.03760963 Ry
     estimated scf accuracy    <       0.00001313 Ry
     electrostatic embedding   =      -0.07691309 Ry
     cavitation energy         =       0.02057576 Ry
     PV energy                 =      -0.08471301 Ry
     correction to one-el term =     172.62035305 Ry

     iteration # 22     ecut=    50.00 Ry     beta= 0.70
     Davidson diagonalization with overlap
     ethr =  3.55E-09,  avg # of iterations =  2.0

     negative rho (up, down):  1.542E-04 0.000E+00

     add environment contribution to local potential
     Polarization accuracy = 5.0E-12, # of iterations =  41

     total cpu time spent up to now is     4168.2 secs

     total energy              =   -3440.03760889 Ry
     estimated scf accuracy    <       0.00000351 Ry
     electrostatic embedding   =      -0.07699100 Ry
     cavitation energy         =       0.02057734 Ry
     PV energy                 =      -0.08470762 Ry
     correction to one-el term =     172.59269390 Ry

     iteration # 23     ecut=    50.00 Ry     beta= 0.70
     Davidson diagonalization with overlap
     ethr =  9.49E-10,  avg # of iterations =  2.0

     negative rho (up, down):  3.317E-05 0.000E+00

     add environment contribution to local potential
     Polarization accuracy = 5.1E-12, # of iterations =  41

     total cpu time spent up to now is     4324.4 secs

     total energy              =   -3440.03760900 Ry
     estimated scf accuracy    <       0.00000240 Ry
     electrostatic embedding   =      -0.07698972 Ry
     cavitation energy         =       0.02057822 Ry
     PV energy                 =      -0.08470075 Ry
     correction to one-el term =     172.57935167 Ry

     iteration # 24     ecut=    50.00 Ry     beta= 0.70
     Davidson diagonalization with overlap
     ethr =  6.49E-10,  avg # of iterations =  1.0

     negative rho (up, down):  5.985E-05 0.000E+00

     add environment contribution to local potential
     Polarization accuracy = 5.1E-12, # of iterations =  41

     total cpu time spent up to now is     4489.7 secs

     total energy              =   -3440.03760956 Ry
     estimated scf accuracy    <       0.00000097 Ry
     electrostatic embedding   =      -0.07694114 Ry
     cavitation energy         =       0.02057855 Ry
     PV energy                 =      -0.08469291 Ry
     correction to one-el term =     172.57658410 Ry

     iteration # 25     ecut=    50.00 Ry     beta= 0.70
     Davidson diagonalization with overlap
     ethr =  2.63E-10,  avg # of iterations =  1.0

     negative rho (up, down):  5.480E-05 0.000E+00

     add environment contribution to local potential
     Polarization accuracy = 5.2E-12, # of iterations =  41

     total cpu time spent up to now is     4650.0 secs

     total energy              =   -3440.03760986 Ry
     estimated scf accuracy    <       0.00000050 Ry
     electrostatic embedding   =      -0.07691347 Ry
     cavitation energy         =       0.02057782 Ry
     PV energy                 =      -0.08469212 Ry
     correction to one-el term =     172.58311312 Ry

     iteration # 26     ecut=    50.00 Ry     beta= 0.70
     Davidson diagonalization with overlap
     ethr =  1.36E-10,  avg # of iterations =  1.0

     negative rho (up, down):  6.366E-05 0.000E+00

     add environment contribution to local potential
     Polarization accuracy = 5.2E-12, # of iterations =  41

     total cpu time spent up to now is     4828.4 secs

     total energy              =   -3440.03761025 Ry
     estimated scf accuracy    <       0.00000023 Ry
     electrostatic embedding   =      -0.07692764 Ry
     cavitation energy         =       0.02057766 Ry
     PV energy                 =      -0.08468918 Ry
     correction to one-el term =     172.57627193 Ry

     iteration # 27     ecut=    50.00 Ry     beta= 0.70
     Davidson diagonalization with overlap
     ethr =  6.08E-11,  avg # of iterations =  2.0

     negative rho (up, down):  8.742E-05 0.000E+00

     add environment contribution to local potential
     Polarization accuracy = 5.5E-12, # of iterations =  43

     total cpu time spent up to now is     5004.8 secs

     total energy              =   -3440.03761019 Ry
     estimated scf accuracy    <       0.00000016 Ry
     electrostatic embedding   =      -0.07697013 Ry
     cavitation energy         =       0.02057782 Ry
     PV energy                 =      -0.08469044 Ry
     correction to one-el term =     172.56879916 Ry

     iteration # 28     ecut=    50.00 Ry     beta= 0.70
     Davidson diagonalization with overlap
     ethr =  4.22E-11,  avg # of iterations =  1.0

     negative rho (up, down):  9.108E-05 0.000E+00

     add environment contribution to local potential
     Polarization accuracy = 5.2E-12, # of iterations =  41

     total cpu time spent up to now is     5162.9 secs

     total energy              =   -3440.03761046 Ry
     estimated scf accuracy    <       0.00000009 Ry
     electrostatic embedding   =      -0.07695663 Ry
     cavitation energy         =       0.02057748 Ry
     PV energy                 =      -0.08469069 Ry
     correction to one-el term =     172.57289420 Ry

     iteration # 29     ecut=    50.00 Ry     beta= 0.70
     Davidson diagonalization with overlap
     ethr =  2.43E-11,  avg # of iterations =  1.0

     negative rho (up, down):  1.021E-04 0.000E+00

     add environment contribution to local potential
     Polarization accuracy = 5.2E-12, # of iterations =  41

     total cpu time spent up to now is     5304.8 secs

     total energy              =   -3440.03761065 Ry
     estimated scf accuracy    <       0.00000007 Ry
     electrostatic embedding   =      -0.07695776 Ry
     cavitation energy         =       0.02057743 Ry
     PV energy                 =      -0.08469041 Ry
     correction to one-el term =     172.57247577 Ry

     iteration # 30     ecut=    50.00 Ry     beta= 0.70
     Davidson diagonalization with overlap
     ethr =  1.86E-11,  avg # of iterations =  1.0

     negative rho (up, down):  1.061E-04 0.000E+00

     add environment contribution to local potential
     Polarization accuracy = 5.2E-12, # of iterations =  41

     total cpu time spent up to now is     5456.3 secs

     total energy              =   -3440.03761088 Ry
     estimated scf accuracy    <       0.00000006 Ry
     electrostatic embedding   =      -0.07695561 Ry
     cavitation energy         =       0.02057734 Ry
     PV energy                 =      -0.08469058 Ry
     correction to one-el term =     172.57372699 Ry

     iteration # 31     ecut=    50.00 Ry     beta= 0.70
     Davidson diagonalization with overlap
     ethr =  1.72E-11,  avg # of iterations =  1.0

     negative rho (up, down):  1.060E-04 0.000E+00

     add environment contribution to local potential
     Polarization accuracy = 5.2E-12, # of iterations =  41

     total cpu time spent up to now is     5626.5 secs

     total energy              =   -3440.03761125 Ry
     estimated scf accuracy    <       0.00000006 Ry
     electrostatic embedding   =      -0.07695033 Ry
     cavitation energy         =       0.02057731 Ry
     PV energy                 =      -0.08469065 Ry
     correction to one-el term =     172.57546048 Ry

     iteration # 32     ecut=    50.00 Ry     beta= 0.70
     Davidson diagonalization with overlap
     ethr =  1.60E-11,  avg # of iterations =  1.0

     negative rho (up, down):  1.059E-04 0.000E+00

     add environment contribution to local potential
     Polarization accuracy = 5.2E-12, # of iterations =  41

     total cpu time spent up to now is     5776.3 secs

     total energy              =   -3440.03761160 Ry
     estimated scf accuracy    <       0.00000006 Ry
     electrostatic embedding   =      -0.07694819 Ry
     cavitation energy         =       0.02057732 Ry
     PV energy                 =      -0.08469063 Ry
     correction to one-el term =     172.57622381 Ry

     iteration # 33     ecut=    50.00 Ry     beta= 0.70
     Davidson diagonalization with overlap
     ethr =  1.60E-11,  avg # of iterations =  1.0

     negative rho (up, down):  1.071E-04 0.000E+00

     add environment contribution to local potential
     Polarization accuracy = 5.2E-12, # of iterations =  41

     total cpu time spent up to now is     5925.1 secs

     total energy              =   -3440.03761238 Ry
     estimated scf accuracy    <       0.00000005 Ry
     electrostatic embedding   =      -0.07694603 Ry
     cavitation energy         =       0.02057732 Ry
     PV energy                 =      -0.08469051 Ry
     correction to one-el term =     172.57705404 Ry

     iteration # 34     ecut=    50.00 Ry     beta= 0.70
     Davidson diagonalization with overlap
     ethr =  1.40E-11,  avg # of iterations =  2.0

     negative rho (up, down):  9.110E-05 0.000E+00

     add environment contribution to local potential
     Polarization accuracy = 5.2E-12, # of iterations =  41

     total cpu time spent up to now is     6062.0 secs

     total energy              =   -3440.03761386 Ry
     estimated scf accuracy    <       0.00000005 Ry
     electrostatic embedding   =      -0.07694280 Ry
     cavitation energy         =       0.02057730 Ry
     PV energy                 =      -0.08469033 Ry
     correction to one-el term =     172.57820991 Ry

     iteration # 35     ecut=    50.00 Ry     beta= 0.70
     Davidson diagonalization with overlap
     ethr =  1.24E-11,  avg # of iterations =  5.0

     negative rho (up, down):  8.992E-05 0.000E+00

     add environment contribution to local potential
     Polarization accuracy = 5.1E-12, # of iterations =  41

     total cpu time spent up to now is     6261.2 secs

     total energy              =   -3440.03761872 Ry
     estimated scf accuracy    <       0.00000004 Ry
     electrostatic embedding   =      -0.07694423 Ry
     cavitation energy         =       0.02057739 Ry
     PV energy                 =      -0.08468960 Ry
     correction to one-el term =     172.57676864 Ry

     iteration # 36     ecut=    50.00 Ry     beta= 0.70
     Davidson diagonalization with overlap
     ethr =  1.03E-11,  avg # of iterations =  5.0

     negative rho (up, down):  9.171E-05 0.000E+00

     add environment contribution to local potential
     Polarization accuracy = 4.2E-12, # of iterations =  41

     total cpu time spent up to now is     6434.6 secs

     total energy              =   -3440.03762352 Ry
     estimated scf accuracy    <          6.9E-09 Ry
     electrostatic embedding   =      -0.07694366 Ry
     cavitation energy         =       0.02057739 Ry
     PV energy                 =      -0.08468934 Ry
     correction to one-el term =     172.57666085 Ry

     iteration # 37     ecut=    50.00 Ry     beta= 0.70
     Davidson diagonalization with overlap
     ethr =  1.86E-12,  avg # of iterations =  5.0

     negative rho (up, down):  9.536E-05 0.000E+00

     add environment contribution to local potential
     Polarization accuracy = 3.3E-12, # of iterations =  41

     total cpu time spent up to now is     6610.1 secs

     total energy              =   -3440.03762677 Ry
     estimated scf accuracy    <          3.4E-09 Ry
     electrostatic embedding   =      -0.07694574 Ry
     cavitation energy         =       0.02057738 Ry
     PV energy                 =      -0.08468969 Ry
     correction to one-el term =     172.57556123 Ry

     iteration # 38     ecut=    50.00 Ry     beta= 0.70
     Davidson diagonalization with overlap
     ethr =  9.08E-13,  avg # of iterations =  2.0

     negative rho (up, down):  9.768E-05 0.000E+00

     add environment contribution to local potential
     Polarization accuracy = 2.0E-12, # of iterations =  41

     total cpu time spent up to now is     6766.2 secs

     total energy              =   -3440.03762755 Ry
     estimated scf accuracy    <          2.0E-09 Ry
     electrostatic embedding   =      -0.07694668 Ry
     cavitation energy         =       0.02057737 Ry
     PV energy                 =      -0.08469004 Ry
     correction to one-el term =     172.57535478 Ry

     iteration # 39     ecut=    50.00 Ry     beta= 0.70
     Davidson diagonalization with overlap
     ethr =  5.51E-13,  avg # of iterations =  5.0

     negative rho (up, down):  9.951E-05 0.000E+00

     add environment contribution to local potential
     Polarization accuracy = 1.0E-11, # of iterations =  39

     total cpu time spent up to now is     6935.0 secs

     total energy              =   -3440.03762827 Ry
     estimated scf accuracy    <          1.7E-09 Ry
     electrostatic embedding   =      -0.07694768 Ry
     cavitation energy         =       0.02057736 Ry
     PV energy                 =      -0.08469031 Ry
     correction to one-el term =     172.57506168 Ry

     iteration # 40     ecut=    50.00 Ry     beta= 0.70
     Davidson diagonalization with overlap
     ethr =  4.58E-13,  avg # of iterations =  2.0

     negative rho (up, down):  9.737E-05 0.000E+00

     the potential shift due to the Gaussian-smeared nuclei is    -1.3441 ev

     total cpu time spent up to now is     7086.1 secs

     End of self-consistent calculation

          k = 0.2500 0.2666 0.0000 ( 35123 PWs)   bands (ev):

   -76.1162 -76.1036 -75.6799 -75.6460 -75.6340 -75.6310 -75.6300 -75.6192
   -75.6185 -75.6070 -75.5686 -75.5567 -46.4402 -46.4277 -46.1033 -46.0907
   -45.9642 -45.9564 -45.9413 -45.9272 -45.9153 -45.8966 -45.8498 -45.8378
   -45.8059 -45.8008 -45.7937 -45.7884 -45.6912 -45.6594 -45.6472 -45.6063
   -45.5952 -45.5933 -45.5516 -45.5150 -45.5037 -45.5031 -45.4962 -45.4844
   -45.4674 -45.4643 -45.4480 -45.4424 -45.4388 -45.4305 -45.4115 -45.3993
   -25.1816 -25.1645 -25.0549 -25.0379 -22.2658 -22.1484 -21.9939 -21.7933
   -21.7188 -21.6281 -21.6057 -21.4505 -21.3973 -21.3027 -21.2763 -21.2613
   -21.1589 -21.1342 -21.0946 -20.9607 -20.9489 -20.9354 -20.7048 -20.6581
   -20.6156 -20.3896 -19.7096 -19.6815 -13.0871 -13.0701 -13.0163 -12.9993
   -10.8485 -10.6163 -10.4544 -10.4363 -10.3334 -10.3200 -10.1819  -9.6964
    -9.6800  -9.5766  -9.5469  -9.4756  -9.3675  -9.3577  -9.3457  -9.3210
    -9.2658  -9.2001  -9.1409  -9.1230  -9.1028  -9.0432  -9.0248  -8.8077
    -8.6838  -8.6254  -8.5727  -8.5269  -8.4719  -8.3305  -8.1882  -8.1792
    -8.1167  -8.0328  -7.9663  -7.7565  -7.7504  -7.6925  -7.6365  -7.6225
    -7.4508  -7.4358  -7.3082  -7.2537  -7.1326  -7.1166  -7.0520  -7.0235
    -6.9454  -6.9114  -6.7129  -6.6729  -6.6291  -6.6094  -6.5607  -6.4548
    -6.4069  -6.3546  -6.3384  -6.2486  -6.1376  -6.1268  -6.0026  -5.8355
    -5.7948  -5.6182  -5.6049  -5.5529  -5.4873  -5.3613  -5.2805  -5.1513
    -5.0896  -5.0600  -4.9817  -4.8592  -4.8248  -4.7218  -4.6920  -4.5329
    -3.5736  -3.5392  -3.3433  -3.2997  -3.2698  -3.1794  -3.1346  -3.1160
    -3.1097  -3.0712  -3.0091  -2.9852  -2.9545  -2.9055  -2.8803  -2.8283
    -2.7938  -2.7834  -2.7638  -2.6945  -2.6042  -2.5322  -2.3804  -2.3573
    -2.2678  -2.2380  -2.1073  -1.8998  -1.7286  -1.6365  -1.5706  -1.4836
    -1.3628  -1.3494  -1.2248  -1.1987  -1.0689  -0.9850  -0.3146  -0.1742
    -0.1368  -0.0688  -0.0194   0.1477   0.1629   0.5477   1.0488   1.1569
     1.1782   1.2289   1.4174   1.5159   1.5294   1.6383   1.6979   1.7057
     1.7538   1.9413   1.9912   2.0824   2.2789   2.3394

     the Fermi energy is    -2.2555 ev

!    total energy              =   -3440.03762853 Ry
     estimated scf accuracy    <          4.8E-10 Ry
     smearing contrib. (-TS)   =       0.07143683 Ry
     internal energy E=F+TS    =   -3440.10906536 Ry

     The total energy is F=E-TS. E is the sum of the following terms:
     one-electron contribution =  -24792.75920926 Ry
     hartree contribution      =   12400.22484366 Ry
     xc contribution           =    -451.17849844 Ry
     ewald contribution        =    9497.62668198 Ry
     one-center paw contrib.   =    -266.45703635 Ry
     electrostatic embedding   =      -0.07694785 Ry
     cavitation energy         =       0.02057735 Ry
     PV energy                 =      -0.08469049 Ry
     correction to one-el term =     172.57521404 Ry

     WARNING: you are using the parabolic pbc correction;
              the potential shift above must be added to 
              band and Fermi energies.

     convergence has been achieved in  40 iterations

     negative rho (up, down):  9.737E-05 0.000E+00

     Forces acting on atoms (cartesian axes, Ry/au):

     atom    1 type  1   force =     0.00294771    0.00000000   -0.00331600
     atom    2 type  1   force =    -0.00099000    0.00000000    0.00199843
     atom    3 type  1   force =     0.00015031    0.00000000   -0.00083925
     atom    4 type  1   force =    -0.00028341    0.00000000   -0.00216975
     atom    5 type  2   force =     0.00036123    0.00000000   -0.00117942
     atom    6 type  2   force =    -0.00020635    0.00000000   -0.00031059
     atom    7 type  1   force =     0.00022265   -0.00068131   -0.00268175
     atom    8 type  1   force =     0.00026367   -0.00048097   -0.00252911
     atom    9 type  2   force =     0.00051410    0.00000000    0.00027989
     atom   10 type  2   force =     0.00065915    0.00000000    0.00244588
     atom   11 type  1   force =     0.00022265    0.00068131   -0.00268175
     atom   12 type  1   force =     0.00026367    0.00048097   -0.00252911
     atom   13 type  1   force =    -0.00014345    0.00000000    0.00036976
     atom   14 type  1   force =     0.00032586    0.00000000    0.00082203
     atom   15 type  1   force =    -0.00110353    0.00000000   -0.00064369
     atom   16 type  1   force =    -0.00193131    0.00000000    0.00399108
     atom   17 type  2   force =    -0.00064583    0.00000000    0.00000000
     atom   18 type  2   force =    -0.00052113    0.00000000    0.00000000
     atom   19 type  1   force =    -0.00134789    0.00060441    0.00000000
     atom   20 type  1   force =    -0.00092186    0.00097665    0.00000000
     atom   21 type  2   force =     0.00252195    0.00000000    0.00000000
     atom   22 type  2   force =    -0.00142008    0.00000000    0.00000000
     atom   23 type  1   force =    -0.00134789   -0.00060441    0.00000000
     atom   24 type  1   force =    -0.00092186   -0.00097665    0.00000000
     atom   25 type  1   force =    -0.00110353    0.00000000    0.00064369
     atom   26 type  1   force =    -0.00193131    0.00000000   -0.00399108
     atom   27 type  1   force =    -0.00014345    0.00000000   -0.00036976
     atom   28 type  1   force =     0.00032586    0.00000000   -0.00082203
     atom   29 type  2   force =     0.00036123    0.00000000    0.00117942
     atom   30 type  2   force =    -0.00020635    0.00000000    0.00031059
     atom   31 type  1   force =     0.00022265   -0.00068131    0.00268175
     atom   32 type  1   force =     0.00026367   -0.00048097    0.00252911
     atom   33 type  2   force =     0.00051410    0.00000000   -0.00027989
     atom   34 type  2   force =     0.00065915    0.00000000   -0.00244588
     atom   35 type  1   force =     0.00022265    0.00068131    0.00268175
     atom   36 type  1   force =     0.00026367    0.00048097    0.00252911
     atom   37 type  1   force =     0.00015031    0.00000000    0.00083925
     atom   38 type  1   force =    -0.00028341    0.00000000    0.00216975
     atom   39 type  1   force =     0.00294771    0.00000000    0.00331600
     atom   40 type  1   force =    -0.00099000    0.00000000   -0.00199843
     atom   41 type  3   force =     0.00064454    0.00000000    0.00116752
     atom   42 type  3   force =     0.00064454    0.00000000   -0.00116752
     atom   43 type  3   force =     0.00103893   -0.00042320    0.00132767
     atom   44 type  3   force =     0.00103893   -0.00042320   -0.00132767
     atom   45 type  3   force =    -0.00084654    0.00092741    0.00126022
     atom   46 type  3   force =    -0.00084654    0.00092741   -0.00126022
     atom   47 type  3   force =     0.00103893    0.00042320    0.00132767
     atom   48 type  3   force =     0.00103893    0.00042320   -0.00132767
     atom   49 type  3   force =    -0.00084654   -0.00092741    0.00126022
     atom   50 type  3   force =    -0.00084654   -0.00092741   -0.00126022
     The non-local contrib.  to forces
     atom    1 type  1   force =     1.65266473    0.00000000    0.46436247
     atom    2 type  1   force =    -0.00876303    0.00000000    1.00190093
     atom    3 type  1   force =    -0.07898948    0.00000000   -1.39050534
     atom    4 type  1   force =     0.02604867    0.00000000   -1.42884859
     atom    5 type  2   force =     0.00121722    0.00000000    0.02858905
     atom    6 type  2   force =     0.00058096    0.00000000    0.04228245
     atom    7 type  1   force =     0.02035342   -0.06415361   -0.08221518
     atom    8 type  1   force =    -0.03624011   -0.06666037   -0.01574137
     atom    9 type  2   force =    -0.00738974    0.00000000    0.04954599
     atom   10 type  2   force =     0.00737808    0.00000000    0.02096993
     atom   11 type  1   force =     0.02035342    0.06415361   -0.08221518
     atom   12 type  1   force =    -0.03624011    0.06666037   -0.01574137
     atom   13 type  1   force =     0.02403535    0.00000000   -0.17395219
     atom   14 type  1   force =    -0.01579704    0.00000000   -0.17664002
     atom   15 type  1   force =    -0.01733516    0.00000000   -0.06110695
     atom   16 type  1   force =     0.00241236    0.00000000    0.22848730
     atom   17 type  2   force =     0.00472975    0.00000000    0.00000000
     atom   18 type  2   force =     0.00290418    0.00000000    0.00000000
     atom   19 type  1   force =     0.02613908    0.04582206    0.00000000
     atom   20 type  1   force =    -0.02129761    0.04492186    0.00000000
     atom   21 type  2   force =     0.00268423    0.00000000    0.00000000
     atom   22 type  2   force =     0.00577497    0.00000000    0.00000000
     atom   23 type  1   force =     0.02613908   -0.04582206    0.00000000
     atom   24 type  1   force =    -0.02129761   -0.04492186    0.00000000
     atom   25 type  1   force =    -0.01733516    0.00000000    0.06110695
     atom   26 type  1   force =     0.00241236    0.00000000   -0.22848730
     atom   27 type  1   force =     0.02403535    0.00000000    0.17395219
     atom   28 type  1   force =    -0.01579704    0.00000000    0.17664002
     atom   29 type  2   force =     0.00121722    0.00000000   -0.02858905
     atom   30 type  2   force =     0.00058096    0.00000000   -0.04228245
     atom   31 type  1   force =     0.02035342   -0.06415361    0.08221518
     atom   32 type  1   force =    -0.03624011   -0.06666037    0.01574137
     atom   33 type  2   force =    -0.00738974    0.00000000   -0.04954599
     atom   34 type  2   force =     0.00737808    0.00000000   -0.02096993
     atom   35 type  1   force =     0.02035342    0.06415361    0.08221518
     atom   36 type  1   force =    -0.03624011    0.06666037    0.01574137
     atom   37 type  1   force =    -0.07898948    0.00000000    1.39050534
     atom   38 type  1   force =     0.02604867    0.00000000    1.42884859
     atom   39 type  1   force =     1.65266473    0.00000000   -0.46436247
     atom   40 type  1   force =    -0.00876303    0.00000000   -1.00190093
     atom   41 type  3   force =    -0.10046868    0.00000000    0.01798776
     atom   42 type  3   force =    -0.10046868    0.00000000   -0.01798776
     atom   43 type  3   force =     0.00178994   -0.08792672    0.05615945
     atom   44 type  3   force =     0.00178994   -0.08792672   -0.05615945
     atom   45 type  3   force =    -0.00013775   -0.08810939    0.05865802
     atom   46 type  3   force =    -0.00013775   -0.08810939   -0.05865802
     atom   47 type  3   force =     0.00178994    0.08792672    0.05615945
     atom   48 type  3   force =     0.00178994    0.08792672   -0.05615945
     atom   49 type  3   force =    -0.00013775    0.08810939    0.05865802
     atom   50 type  3   force =    -0.00013775    0.08810939   -0.05865802
     The ionic contribution  to forces
     atom    1 type  1   force =    -3.60272811    0.00000014  -93.23392075
     atom    2 type  1   force =     0.55144407    0.00000015  -97.19971461
     atom    3 type  1   force =     0.09157322   -0.00000023  -87.91262479
     atom    4 type  1   force =     0.01894155   -0.00000023  -87.82827117
     atom    5 type  2   force =     0.23348458   -0.00000278 -164.37227693
     atom    6 type  2   force =    -0.17332226   -0.00000273 -165.07284492
     atom    7 type  1   force =     0.24942412   -0.91634111  -61.98598865
     atom    8 type  1   force =    -0.11185551   -0.72231338  -64.02833758
     atom    9 type  2   force =    -1.51220359    0.00000335 -165.28698608
     atom   10 type  2   force =     1.51628054    0.00000278 -171.56266886
     atom   11 type  1   force =     0.24942413    0.91634171  -61.98598615
     atom   12 type  1   force =    -0.11185551    0.72231397  -64.02833525
     atom   13 type  1   force =    -0.29892820   -0.00000202  -37.79914439
     atom   14 type  1   force =     0.21341373   -0.00000202  -37.84224232
     atom   15 type  1   force =    -0.12794415    0.00001010  -24.90218044
     atom   16 type  1   force =     0.12724237    0.00000928  -27.52261923
     atom   17 type  2   force =    -0.06035874    0.00001255   -0.00047934
     atom   18 type  2   force =     0.29290655    0.00001304   -0.00047986
     atom   19 type  1   force =    -0.06953100    1.38292496   -0.00008879
     atom   20 type  1   force =    -0.00611740    1.39672299   -0.00008605
     atom   21 type  2   force =     1.10266432    0.00011271   -0.00026428
     atom   22 type  2   force =    -1.06389009    0.00011274   -0.00025918
     atom   23 type  1   force =    -0.06953151   -1.38306719   -0.00008879
     atom   24 type  1   force =    -0.00611828   -1.39686563   -0.00008605
     atom   25 type  1   force =    -0.12794317    0.00001010   24.90196663
     atom   26 type  1   force =     0.12723968    0.00000928   27.52247213
     atom   27 type  1   force =    -0.29892985   -0.00000202   37.79943259
     atom   28 type  1   force =     0.21341393   -0.00000202   37.84253237
     atom   29 type  2   force =     0.23348506   -0.00000278  164.37260938
     atom   30 type  2   force =    -0.17332145   -0.00000273  165.07317860
     atom   31 type  1   force =     0.24942492   -0.91636732   61.98605982
     atom   32 type  1   force =    -0.11185537   -0.72233571   64.02841227
     atom   33 type  2   force =    -1.51221833    0.00000335  165.28713287
     atom   34 type  2   force =     1.51629014    0.00000278  171.56283775
     atom   35 type  1   force =     0.24942493    0.91636791   61.98605732
     atom   36 type  1   force =    -0.11185538    0.72233630   64.02840994
     atom   37 type  1   force =     0.09157367   -0.00000023   87.91263166
     atom   38 type  1   force =     0.01894724   -0.00000023   87.82827059
     atom   39 type  1   force =    -3.60276664    0.00000014   93.23406431
     atom   40 type  1   force =     0.55144649    0.00000015   97.19979535
     atom   41 type  3   force =     2.73038596    0.00000002  -15.68127394
     atom   42 type  3   force =     2.73042517    0.00000002   15.68125457
     atom   43 type  3   force =    -0.10748565    2.34486096  -16.60716646
     atom   44 type  3   force =    -0.10748907    2.34507224   16.60719602
     atom   45 type  3   force =     0.05609199    2.32966844  -16.68805123
     atom   46 type  3   force =     0.05609182    2.32988261   16.68808681
     atom   47 type  3   force =    -0.10748565   -2.34486099  -16.60716643
     atom   48 type  3   force =    -0.10748907   -2.34507227   16.60719598
     atom   49 type  3   force =     0.05609199   -2.32966847  -16.68805120
     atom   50 type  3   force =     0.05609182   -2.32988264   16.68808678
     The local contribution  to forces
     atom    1 type  1   force =     1.91421547   -0.00000000   92.66893902
     atom    2 type  1   force =    -0.49914798   -0.00000000   96.10097795
     atom    3 type  1   force =    -0.01659474   -0.00000000   89.36947751
     atom    4 type  1   force =    -0.04171413   -0.00000000   89.33311565
     atom    5 type  2   force =    -0.23670095    0.00000000  164.39062336
     atom    6 type  2   force =     0.17509136   -0.00000000  165.07133400
     atom    7 type  1   force =    -0.26971499    0.99582036   62.06161530
     atom    8 type  1   force =     0.14846117    0.81035807   64.02481634
     atom    9 type  2   force =     1.50092956    0.00000000  165.18521271
     atom   10 type  2   force =    -1.50056550   -0.00000000  171.48334510
     atom   11 type  1   force =    -0.26971499   -0.99582036   62.06161530
     atom   12 type  1   force =     0.14846117   -0.81035807   64.02481634
     atom   13 type  1   force =     0.27389134    0.00000000   37.97534479
     atom   14 type  1   force =    -0.19637522    0.00000000   38.02207706
     atom   15 type  1   force =     0.14303580   -0.00000000   24.95864969
     atom   16 type  1   force =    -0.13055360   -0.00000000   27.29740463
     atom   17 type  2   force =     0.05391891   -0.00000000   -0.00580590
     atom   18 type  2   force =    -0.29526897    0.00000000   -0.00581833
     atom   19 type  1   force =     0.04222149   -1.42694959   -0.00243916
     atom   20 type  1   force =     0.02635360   -1.43938501   -0.00244481
     atom   21 type  2   force =    -1.10293196    0.00000000   -0.00600860
     atom   22 type  2   force =     1.05688148    0.00000000   -0.00601685
     atom   23 type  1   force =     0.04222201    1.42659155   -0.00243916
     atom   24 type  1   force =     0.02635430    1.43902727   -0.00244481
     atom   25 type  1   force =     0.14303978   -0.00000000  -24.96041362
     atom   26 type  1   force =    -0.13056039    0.00000000  -27.29916445
     atom   27 type  1   force =     0.27389165   -0.00000000  -37.97711073
     atom   28 type  1   force =    -0.19637455    0.00000000  -38.02383909
     atom   29 type  2   force =    -0.23668974   -0.00000000 -164.39660584
     atom   30 type  2   force =     0.17508552    0.00000000 -165.07730296
     atom   31 type  1   force =    -0.26968834    0.99587428  -62.06403789
     atom   32 type  1   force =     0.14843328    0.81039818  -64.02725081
     atom   33 type  2   force =     1.50094704    0.00000000 -165.19106100
     atom   34 type  2   force =    -1.50059601    0.00000000 -171.48909234
     atom   35 type  1   force =    -0.26968834   -0.99587428  -62.06403789
     atom   36 type  1   force =     0.14843328   -0.81039818  -64.02725081
     atom   37 type  1   force =    -0.01658536    0.00000000  -89.37315657
     atom   38 type  1   force =    -0.04172381   -0.00000000  -89.33680002
     atom   39 type  1   force =     1.91423430   -0.00000000  -92.67054547
     atom   40 type  1   force =    -0.49917736    0.00000000  -96.10243507
     atom   41 type  3   force =    -2.63125595   -0.00000000   15.65000529
     atom   42 type  3   force =    -2.63125595   -0.00000000  -15.65000529
     atom   43 type  3   force =     0.10575665   -2.24107290   16.57077803
     atom   44 type  3   force =     0.10575665   -2.24107290  -16.57077803
     atom   45 type  3   force =    -0.05619827   -2.22417067   16.65313993
     atom   46 type  3   force =    -0.05619827   -2.22417067  -16.65313993
     atom   47 type  3   force =     0.10575665    2.24107290   16.57077803
     atom   48 type  3   force =     0.10575665    2.24107290  -16.57077803
     atom   49 type  3   force =    -0.05619827    2.22417067   16.65313993
     atom   50 type  3   force =    -0.05619827    2.22417067  -16.65313993
     The core correction contribution to forces
     atom    1 type  1   force =    -0.01628082    0.00000000   -0.00512935
     atom    2 type  1   force =     0.00019397   -0.00000000   -0.00922542
     atom    3 type  1   force =     0.00078696   -0.00000000    0.01318539
     atom    4 type  1   force =    -0.00028130    0.00000000    0.01347695
     atom    5 type  2   force =     0.00000000    0.00000000    0.00000000
     atom    6 type  2   force =     0.00000000    0.00000000    0.00000000
     atom    7 type  1   force =    -0.00037771    0.00011201    0.00092661
     atom    8 type  1   force =     0.00052624    0.00024928    0.00027157
     atom    9 type  2   force =     0.00000000    0.00000000    0.00000000
     atom   10 type  2   force =     0.00000000    0.00000000    0.00000000
     atom   11 type  1   force =    -0.00037771   -0.00011201    0.00092661
     atom   12 type  1   force =     0.00052624   -0.00024928    0.00027157
     atom   13 type  1   force =    -0.00024753    0.00000000    0.00248016
     atom   14 type  1   force =     0.00018379    0.00000000    0.00253896
     atom   15 type  1   force =     0.00019972   -0.00000000    0.00062242
     atom   16 type  1   force =    -0.00000248    0.00000000   -0.00281309
     atom   17 type  2   force =     0.00000000    0.00000000    0.00000000
     atom   18 type  2   force =     0.00000000    0.00000000    0.00000000
     atom   19 type  1   force =    -0.00024232   -0.00013394   -0.00000198
     atom   20 type  1   force =     0.00020731   -0.00012206   -0.00000197
     atom   21 type  2   force =     0.00000000    0.00000000    0.00000000
     atom   22 type  2   force =     0.00000000    0.00000000    0.00000000
     atom   23 type  1   force =    -0.00024232    0.00013338   -0.00000198
     atom   24 type  1   force =     0.00020731    0.00012150   -0.00000197
     atom   25 type  1   force =     0.00019970    0.00000000   -0.00062479
     atom   26 type  1   force =    -0.00000246   -0.00000000    0.00281093
     atom   27 type  1   force =    -0.00024754    0.00000000   -0.00248218
     atom   28 type  1   force =     0.00018381    0.00000000   -0.00254101
     atom   29 type  2   force =     0.00000000    0.00000000    0.00000000
     atom   30 type  2   force =     0.00000000    0.00000000    0.00000000
     atom   31 type  1   force =    -0.00037763    0.00011224   -0.00092849
     atom   32 type  1   force =     0.00052615    0.00024954   -0.00027350
     atom   33 type  2   force =     0.00000000    0.00000000    0.00000000
     atom   34 type  2   force =     0.00000000    0.00000000    0.00000000
     atom   35 type  1   force =    -0.00037763   -0.00011224   -0.00092849
     atom   36 type  1   force =     0.00052615   -0.00024954   -0.00027350
     atom   37 type  1   force =     0.00078700    0.00000000   -0.01318955
     atom   38 type  1   force =    -0.00028126    0.00000000   -0.01348115
     atom   39 type  1   force =    -0.01628148    0.00000000    0.00512713
     atom   40 type  1   force =     0.00019400   -0.00000000    0.00922304
     atom   41 type  3   force =     0.00000000    0.00000000    0.00000000
     atom   42 type  3   force =     0.00000000    0.00000000    0.00000000
     atom   43 type  3   force =     0.00000000    0.00000000    0.00000000
     atom   44 type  3   force =     0.00000000    0.00000000    0.00000000
     atom   45 type  3   force =     0.00000000    0.00000000    0.00000000
     atom   46 type  3   force =     0.00000000    0.00000000    0.00000000
     atom   47 type  3   force =     0.00000000    0.00000000    0.00000000
     atom   48 type  3   force =     0.00000000    0.00000000    0.00000000
     atom   49 type  3   force =     0.00000000    0.00000000    0.00000000
     atom   50 type  3   force =     0.00000000    0.00000000    0.00000000
     The Hubbard contrib.    to forces
     atom    1 type  1   force =     0.00000000    0.00000000    0.00000000
     atom    2 type  1   force =     0.00000000    0.00000000    0.00000000
     atom    3 type  1   force =     0.00000000    0.00000000    0.00000000
     atom    4 type  1   force =     0.00000000    0.00000000    0.00000000
     atom    5 type  2   force =     0.00000000    0.00000000    0.00000000
     atom    6 type  2   force =     0.00000000    0.00000000    0.00000000
     atom    7 type  1   force =     0.00000000    0.00000000    0.00000000
     atom    8 type  1   force =     0.00000000    0.00000000    0.00000000
     atom    9 type  2   force =     0.00000000    0.00000000    0.00000000
     atom   10 type  2   force =     0.00000000    0.00000000    0.00000000
     atom   11 type  1   force =     0.00000000    0.00000000    0.00000000
     atom   12 type  1   force =     0.00000000    0.00000000    0.00000000
     atom   13 type  1   force =     0.00000000    0.00000000    0.00000000
     atom   14 type  1   force =     0.00000000    0.00000000    0.00000000
     atom   15 type  1   force =     0.00000000    0.00000000    0.00000000
     atom   16 type  1   force =     0.00000000    0.00000000    0.00000000
     atom   17 type  2   force =     0.00000000    0.00000000    0.00000000
     atom   18 type  2   force =     0.00000000    0.00000000    0.00000000
     atom   19 type  1   force =     0.00000000    0.00000000    0.00000000
     atom   20 type  1   force =     0.00000000    0.00000000    0.00000000
     atom   21 type  2   force =     0.00000000    0.00000000    0.00000000
     atom   22 type  2   force =     0.00000000    0.00000000    0.00000000
     atom   23 type  1   force =     0.00000000    0.00000000    0.00000000
     atom   24 type  1   force =     0.00000000    0.00000000    0.00000000
     atom   25 type  1   force =     0.00000000    0.00000000    0.00000000
     atom   26 type  1   force =     0.00000000    0.00000000    0.00000000
     atom   27 type  1   force =     0.00000000    0.00000000    0.00000000
     atom   28 type  1   force =     0.00000000    0.00000000    0.00000000
     atom   29 type  2   force =     0.00000000    0.00000000    0.00000000
     atom   30 type  2   force =     0.00000000    0.00000000    0.00000000
     atom   31 type  1   force =     0.00000000    0.00000000    0.00000000
     atom   32 type  1   force =     0.00000000    0.00000000    0.00000000
     atom   33 type  2   force =     0.00000000    0.00000000    0.00000000
     atom   34 type  2   force =     0.00000000    0.00000000    0.00000000
     atom   35 type  1   force =     0.00000000    0.00000000    0.00000000
     atom   36 type  1   force =     0.00000000    0.00000000    0.00000000
     atom   37 type  1   force =     0.00000000    0.00000000    0.00000000
     atom   38 type  1   force =     0.00000000    0.00000000    0.00000000
     atom   39 type  1   force =     0.00000000    0.00000000    0.00000000
     atom   40 type  1   force =     0.00000000    0.00000000    0.00000000
     atom   41 type  3   force =     0.00000000    0.00000000    0.00000000
     atom   42 type  3   force =     0.00000000    0.00000000    0.00000000
     atom   43 type  3   force =     0.00000000    0.00000000    0.00000000
     atom   44 type  3   force =     0.00000000    0.00000000    0.00000000
     atom   45 type  3   force =     0.00000000    0.00000000    0.00000000
     atom   46 type  3   force =     0.00000000    0.00000000    0.00000000
     atom   47 type  3   force =     0.00000000    0.00000000    0.00000000
     atom   48 type  3   force =     0.00000000    0.00000000    0.00000000
     atom   49 type  3   force =     0.00000000    0.00000000    0.00000000
     atom   50 type  3   force =     0.00000000    0.00000000    0.00000000
     The SCF correction term to forces
     atom    1 type  1   force =     0.00000316   -0.00000001    0.00001043
     atom    2 type  1   force =    -0.00000142   -0.00000001    0.00001276
     atom    3 type  1   force =     0.00000782    0.00000002    0.00001256
     atom    4 type  1   force =    -0.00000803    0.00000002    0.00000640
     atom    5 type  2   force =     0.00001256    0.00000012    0.00002150
     atom    6 type  2   force =    -0.00001268    0.00000012    0.00003073
     atom    7 type  1   force =     0.00000717   -0.00000669    0.00001164
     atom    8 type  1   force =    -0.00000707   -0.00000198    0.00001325
     atom    9 type  2   force =     0.00000901   -0.00000012    0.00003916
     atom   10 type  2   force =    -0.00000929   -0.00000011    0.00003898
     atom   11 type  1   force =     0.00000717    0.00000665    0.00001161
     atom   12 type  1   force =    -0.00000707    0.00000195    0.00001323
     atom   13 type  1   force =     0.00000510    0.00000006    0.00000645
     atom   14 type  1   force =    -0.00000503    0.00000006    0.00000857
     atom   15 type  1   force =     0.00000166   -0.00000007    0.00001575
     atom   16 type  1   force =    -0.00000170   -0.00000007    0.00001358
     atom   17 type  2   force =     0.00000401    0.00000024    0.00001021
     atom   18 type  2   force =    -0.00000391    0.00000024    0.00001023
     atom   19 type  1   force =     0.00000606    0.00000484    0.00000363
     atom   20 type  1   force =    -0.00000610    0.00000500    0.00000366
     atom   21 type  2   force =     0.00001034   -0.00000024    0.00000977
     atom   22 type  2   force =    -0.00001066   -0.00000024    0.00000984
     atom   23 type  1   force =     0.00000605   -0.00000477    0.00000363
     atom   24 type  1   force =    -0.00000610   -0.00000493    0.00000366
     atom   25 type  1   force =     0.00000164   -0.00000007   -0.00001131
     atom   26 type  1   force =    -0.00000167   -0.00000007   -0.00000973
     atom   27 type  1   force =     0.00000506    0.00000006   -0.00000523
     atom   28 type  1   force =    -0.00000499    0.00000006   -0.00000736
     atom   29 type  2   force =     0.00001257    0.00000012   -0.00003061
     atom   30 type  2   force =    -0.00001269    0.00000012   -0.00003992
     atom   31 type  1   force =     0.00000711   -0.00000714   -0.00001518
     atom   32 type  1   force =    -0.00000702   -0.00000240   -0.00001683
     atom   33 type  2   force =     0.00000876   -0.00000012   -0.00004906
     atom   34 type  2   force =    -0.00000901   -0.00000011   -0.00004977
     atom   35 type  1   force =     0.00000711    0.00000711   -0.00001516
     atom   36 type  1   force =    -0.00000702    0.00000236   -0.00001681
     atom   37 type  1   force =     0.00000775    0.00000002   -0.00001621
     atom   38 type  1   force =    -0.00000796    0.00000002   -0.00001005
     atom   39 type  1   force =     0.00000293   -0.00000001   -0.00001288
     atom   40 type  1   force =    -0.00000127   -0.00000001   -0.00001517
     atom   41 type  3   force =     0.00000129   -0.00000000    0.00000143
     atom   42 type  3   force =     0.00000135   -0.00000000   -0.00000175
     atom   43 type  3   force =     0.00000064   -0.00000023    0.00000133
     atom   44 type  3   force =     0.00000063   -0.00000022   -0.00000170
     atom   45 type  3   force =    -0.00000070   -0.00000091    0.00000171
     atom   46 type  3   force =    -0.00000068   -0.00000089   -0.00000207
     atom   47 type  3   force =     0.00000064    0.00000023    0.00000133
     atom   48 type  3   force =     0.00000063    0.00000022   -0.00000170
     atom   49 type  3   force =    -0.00000070    0.00000091    0.00000171
     atom   50 type  3   force =    -0.00000068    0.00000089   -0.00000207

     Total force =     0.014987     Total SCF correction =     0.000136

     BFGS Geometry Optimization
     Energy error            =      0.0E+00 Ry
     Gradient error          =      4.0E-03 Ry/Bohr

     number of scf cycles    =   1
     number of bfgs steps    =   0

     energy             new  =   -3440.0376285284 Ry

     new trust radius        =       0.0044367595 bohr
     new conv_thr            =       0.0000000010 Ry


ATOMIC_POSITIONS (crystal)
O             0.0158338120        0.5000000000        0.2644508188
O             0.4782247429        0.5000000000        0.2670636548
O            -0.0031640915        0.0000000000        0.2886802127
O             0.4985389923        0.0000000000        0.2887700304
Ru            0.2480876924        0.0000000000        0.3606611338
Ru            0.7479992475        0.0000000000        0.3596903903
O             0.2460458294        0.3085090069        0.3564480876
O             0.7496655903        0.3097669148        0.3538931570
Ru           -0.0015090037        0.5000000000        0.3568830194
Ru            0.4978798983        0.5000000000        0.3491744271
O             0.2460458294        0.6914909931        0.3564480876
O             0.7496655903        0.6902330852        0.3538931570
O            -0.0025186525        0.0000000000        0.4124798600
O             0.4991423085        0.0000000000        0.4125368461
O            -0.0013129427        0.5000000000        0.4458126891
O             0.4998680406        0.5000000000        0.4412239533
Ru           -0.0010126920        0.0000000000        0.5000010000
Ru            0.4993028022        0.0000000000        0.5000010000
O             0.2500179310        0.1886623344        0.5000010000
O             0.7490225421        0.1887575497        0.5000010000
Ru            0.2540520910        0.5000000000        0.5000010000
Ru            0.7442613599        0.5000000000        0.5000010000
O             0.2500179310        0.8113386656        0.5000010000
O             0.7490225421        0.8112434503        0.5000010000
O            -0.0013129427        0.5000000000        0.5541883109
O             0.4998680406        0.5000000000        0.5587770467
O            -0.0025186525        0.0000000000        0.5875211400
O             0.4991423085        0.0000000000        0.5874641539
Ru            0.2480876924        0.0000000000        0.6393398662
Ru            0.7479992475        0.0000000000        0.6403106097
O             0.2460458294        0.3085090069        0.6435529124
O             0.7496655903        0.3097669148        0.6461078430
Ru           -0.0015090037        0.5000000000        0.6431179806
Ru            0.4978798983        0.5000000000        0.6508265729
O             0.2460458294        0.6914909931        0.6435529124
O             0.7496655903        0.6902330852        0.6461078430
O            -0.0031640915        0.0000000000        0.7113217873
O             0.4985389923        0.0000000000        0.7112319696
O             0.0158338120        0.5000000000        0.7355501812
O             0.4782247429        0.5000000000        0.7329373452
H             0.1657390878        0.5000000000        0.2569915262
H             0.1657390878        0.5000000000        0.7430084738
H            -0.0056503730        0.1352684689        0.2637007937
H            -0.0056503730        0.1352684689        0.7362992063
H             0.4986807605        0.1336891863        0.2633636640
H             0.4986807605        0.1336891863        0.7366363360
H            -0.0056503730        0.8647315311        0.2637007937
H            -0.0056503730        0.8647315311        0.7362992063
H             0.4986807605        0.8663108137        0.2633636640
H             0.4986807605        0.8663108137        0.7366363360



     Writing config-only to output data dir /storage/home/mgm6007/ixd4/Maria/Strain2_Files/RuO2-110-0-02345/RuO2-110-0-02345.save/
     NEW-OLD atomic charge density approx. for the potential

     Check: negative core charge=   -0.000001

     negative rho (up, down):  9.711E-05 0.000E+00

     add environment contribution to local potential
     Polarization accuracy = 1.9E-12, # of iterations =  41

     total cpu time spent up to now is     7258.4 secs

     per-process dynamical memory:   206.1 Mb

     Self-consistent Calculation

     iteration #  1     ecut=    50.00 Ry     beta= 0.70
     Davidson diagonalization with overlap
     ethr =  1.00E-06,  avg # of iterations =  3.0

     Threshold (ethr) on eigenvalues was too large:
     Diagonalizing with lowered threshold

     Davidson diagonalization with overlap
     ethr =  1.84E-08,  avg # of iterations =  2.0

     negative rho (up, down):  1.135E-04 0.000E+00

     add environment contribution to local potential
     Polarization accuracy = 2.0E-12, # of iterations =  40

     total cpu time spent up to now is     7431.2 secs

     total energy              =   -3440.03780399 Ry
     estimated scf accuracy    <       0.00007489 Ry
     electrostatic embedding   =      -0.07704772 Ry
     cavitation energy         =       0.02057836 Ry
     PV energy                 =      -0.08468174 Ry
     correction to one-el term =     172.57036877 Ry

     iteration #  2     ecut=    50.00 Ry     beta= 0.70
     Davidson diagonalization with overlap
     ethr =  2.02E-08,  avg # of iterations =  2.0

     negative rho (up, down):  1.195E-04 0.000E+00

     add environment contribution to local potential
     Polarization accuracy = 1.9E-12, # of iterations =  41

     total cpu time spent up to now is     7580.1 secs

     total energy              =   -3440.03780359 Ry
     estimated scf accuracy    <       0.00007084 Ry
     electrostatic embedding   =      -0.07702551 Ry
     cavitation energy         =       0.02057969 Ry
     PV energy                 =      -0.08468099 Ry
     correction to one-el term =     172.59016948 Ry

     iteration #  3     ecut=    50.00 Ry     beta= 0.70
     Davidson diagonalization with overlap
     ethr =  1.91E-08,  avg # of iterations =  1.0

     negative rho (up, down):  1.405E-04 0.000E+00

     add environment contribution to local potential
     Polarization accuracy = 2.0E-12, # of iterations =  41

     total cpu time spent up to now is     7731.1 secs

     total energy              =   -3440.03780760 Ry
     estimated scf accuracy    <       0.00003625 Ry
     electrostatic embedding   =      -0.07700199 Ry
     cavitation energy         =       0.02058021 Ry
     PV energy                 =      -0.08468157 Ry
     correction to one-el term =     172.59457401 Ry

     iteration #  4     ecut=    50.00 Ry     beta= 0.70
     Davidson diagonalization with overlap
     ethr =  9.80E-09,  avg # of iterations =  1.0

     negative rho (up, down):  1.521E-04 0.000E+00

     add environment contribution to local potential
     Polarization accuracy = 2.0E-12, # of iterations =  41

     total cpu time spent up to now is     7883.5 secs

     total energy              =   -3440.03780807 Ry
     estimated scf accuracy    <       0.00000684 Ry
     electrostatic embedding   =      -0.07697667 Ry
     cavitation energy         =       0.02058186 Ry
     PV energy                 =      -0.08468099 Ry
     correction to one-el term =     172.61589794 Ry

     iteration #  5     ecut=    50.00 Ry     beta= 0.70
     Davidson diagonalization with overlap
     ethr =  1.85E-09,  avg # of iterations =  1.0

     negative rho (up, down):  1.583E-04 0.000E+00

     add environment contribution to local potential
     Polarization accuracy = 2.0E-12, # of iterations =  41

     total cpu time spent up to now is     8031.1 secs

     total energy              =   -3440.03780826 Ry
     estimated scf accuracy    <       0.00000398 Ry
     electrostatic embedding   =      -0.07695675 Ry
     cavitation energy         =       0.02058257 Ry
     PV energy                 =      -0.08468127 Ry
     correction to one-el term =     172.62917693 Ry

     iteration #  6     ecut=    50.00 Ry     beta= 0.70
     Davidson diagonalization with overlap
     ethr =  1.08E-09,  avg # of iterations =  1.0

     negative rho (up, down):  1.587E-04 0.000E+00

     add environment contribution to local potential
     Polarization accuracy = 1.9E-12, # of iterations =  41

     total cpu time spent up to now is     8187.4 secs

     total energy              =   -3440.03780830 Ry
     estimated scf accuracy    <       0.00000170 Ry
     electrostatic embedding   =      -0.07694108 Ry
     cavitation energy         =       0.02058289 Ry
     PV energy                 =      -0.08468195 Ry
     correction to one-el term =     172.64016988 Ry

     iteration #  7     ecut=    50.00 Ry     beta= 0.70
     Davidson diagonalization with overlap
     ethr =  4.59E-10,  avg # of iterations =  1.0

     negative rho (up, down):  1.528E-04 0.000E+00

     add environment contribution to local potential
     Polarization accuracy = 1.8E-12, # of iterations =  41

     total cpu time spent up to now is     8333.7 secs

     total energy              =   -3440.03780830 Ry
     estimated scf accuracy    <       0.00000088 Ry
     electrostatic embedding   =      -0.07692733 Ry
     cavitation energy         =       0.02058290 Ry
     PV energy                 =      -0.08468299 Ry
     correction to one-el term =     172.64948635 Ry

     iteration #  8     ecut=    50.00 Ry     beta= 0.70
     Davidson diagonalization with overlap
     ethr =  2.39E-10,  avg # of iterations =  1.0

     negative rho (up, down):  1.437E-04 0.000E+00

     add environment contribution to local potential
     Polarization accuracy = 1.9E-12, # of iterations =  41

     total cpu time spent up to now is     8488.2 secs

     total energy              =   -3440.03780831 Ry
     estimated scf accuracy    <       0.00000026 Ry
     electrostatic embedding   =      -0.07691402 Ry
     cavitation energy         =       0.02058270 Ry
     PV energy                 =      -0.08468437 Ry
     correction to one-el term =     172.65860060 Ry

     iteration #  9     ecut=    50.00 Ry     beta= 0.70
     Davidson diagonalization with overlap
     ethr =  6.97E-11,  avg # of iterations =  1.0

     negative rho (up, down):  1.311E-04 0.000E+00

     add environment contribution to local potential
     Polarization accuracy = 1.9E-12, # of iterations =  41

     total cpu time spent up to now is     8656.9 secs

     total energy              =   -3440.03780830 Ry
     estimated scf accuracy    <       0.00000010 Ry
     electrostatic embedding   =      -0.07691097 Ry
     cavitation energy         =       0.02058241 Ry
     PV energy                 =      -0.08468509 Ry
     correction to one-el term =     172.65971839 Ry

     iteration # 10     ecut=    50.00 Ry     beta= 0.70
     Davidson diagonalization with overlap
     ethr =  2.75E-11,  avg # of iterations =  2.0

     negative rho (up, down):  1.176E-04 0.000E+00

     add environment contribution to local potential
     Polarization accuracy = 1.9E-12, # of iterations =  41

     total cpu time spent up to now is     8831.3 secs

     total energy              =   -3440.03780827 Ry
     estimated scf accuracy    <       0.00000002 Ry
     electrostatic embedding   =      -0.07690691 Ry
[...]
     atom    9 type  2   force =     0.00000000    0.00000000    0.00000000
     atom   10 type  2   force =     0.00000000    0.00000000    0.00000000
     atom   11 type  1   force =    -0.00028279   -0.00012016    0.00081341
     atom   12 type  1   force =     0.00058705   -0.00027133    0.00006878
     atom   13 type  1   force =    -0.00014728   -0.00000000    0.00247238
     atom   14 type  1   force =     0.00021269    0.00000000    0.00251969
     atom   15 type  1   force =     0.00018262    0.00000000    0.00055177
     atom   16 type  1   force =    -0.00003573    0.00000000   -0.00269305
     atom   17 type  2   force =     0.00000000    0.00000000    0.00000000
     atom   18 type  2   force =     0.00000000    0.00000000    0.00000000
     atom   19 type  1   force =    -0.00023292   -0.00014254   -0.00000197
     atom   20 type  1   force =     0.00019725   -0.00007862   -0.00000197
     atom   21 type  2   force =     0.00000000    0.00000000    0.00000000
     atom   22 type  2   force =     0.00000000    0.00000000    0.00000000
     atom   23 type  1   force =    -0.00023292    0.00014198   -0.00000197
     atom   24 type  1   force =     0.00019725    0.00007807   -0.00000197
     atom   25 type  1   force =     0.00018260    0.00000000   -0.00055416
     atom   26 type  1   force =    -0.00003571    0.00000000    0.00269090
     atom   27 type  1   force =    -0.00014728    0.00000000   -0.00247441
     atom   28 type  1   force =     0.00021270    0.00000000   -0.00252174
     atom   29 type  2   force =     0.00000000    0.00000000    0.00000000
     atom   30 type  2   force =     0.00000000    0.00000000    0.00000000
     atom   31 type  1   force =    -0.00028272    0.00012040   -0.00081529
     atom   32 type  1   force =     0.00058696    0.00027161   -0.00007072
     atom   33 type  2   force =     0.00000000    0.00000000    0.00000000
     atom   34 type  2   force =     0.00000000    0.00000000    0.00000000
     atom   35 type  1   force =    -0.00028272   -0.00012040   -0.00081529
     atom   36 type  1   force =     0.00058696   -0.00027161   -0.00007072
     atom   37 type  1   force =    -0.00006022   -0.00000000   -0.01310579
     atom   38 type  1   force =     0.00028776   -0.00000000   -0.01335670
     atom   39 type  1   force =    -0.01578597    0.00000000    0.00573348
     atom   40 type  1   force =     0.00017613    0.00000000    0.00920889
     atom   41 type  3   force =     0.00000000    0.00000000    0.00000000
     atom   42 type  3   force =     0.00000000    0.00000000    0.00000000
     atom   43 type  3   force =     0.00000000    0.00000000    0.00000000
     atom   44 type  3   force =     0.00000000    0.00000000    0.00000000
     atom   45 type  3   force =     0.00000000    0.00000000    0.00000000
     atom   46 type  3   force =     0.00000000    0.00000000    0.00000000
     atom   47 type  3   force =     0.00000000    0.00000000    0.00000000
     atom   48 type  3   force =     0.00000000    0.00000000    0.00000000
     atom   49 type  3   force =     0.00000000    0.00000000    0.00000000
     atom   50 type  3   force =     0.00000000    0.00000000    0.00000000
     The Hubbard contrib.    to forces
     atom    1 type  1   force =     0.00000000    0.00000000    0.00000000
     atom    2 type  1   force =     0.00000000    0.00000000    0.00000000
     atom    3 type  1   force =     0.00000000    0.00000000    0.00000000
     atom    4 type  1   force =     0.00000000    0.00000000    0.00000000
     atom    5 type  2   force =     0.00000000    0.00000000    0.00000000
     atom    6 type  2   force =     0.00000000    0.00000000    0.00000000
     atom    7 type  1   force =     0.00000000    0.00000000    0.00000000
     atom    8 type  1   force =     0.00000000    0.00000000    0.00000000
     atom    9 type  2   force =     0.00000000    0.00000000    0.00000000
     atom   10 type  2   force =     0.00000000    0.00000000    0.00000000
     atom   11 type  1   force =     0.00000000    0.00000000    0.00000000
     atom   12 type  1   force =     0.00000000    0.00000000    0.00000000
     atom   13 type  1   force =     0.00000000    0.00000000    0.00000000
     atom   14 type  1   force =     0.00000000    0.00000000    0.00000000
     atom   15 type  1   force =     0.00000000    0.00000000    0.00000000
     atom   16 type  1   force =     0.00000000    0.00000000    0.00000000
     atom   17 type  2   force =     0.00000000    0.00000000    0.00000000
     atom   18 type  2   force =     0.00000000    0.00000000    0.00000000
     atom   19 type  1   force =     0.00000000    0.00000000    0.00000000
     atom   20 type  1   force =     0.00000000    0.00000000    0.00000000
     atom   21 type  2   force =     0.00000000    0.00000000    0.00000000
     atom   22 type  2   force =     0.00000000    0.00000000    0.00000000
     atom   23 type  1   force =     0.00000000    0.00000000    0.00000000
     atom   24 type  1   force =     0.00000000    0.00000000    0.00000000
     atom   25 type  1   force =     0.00000000    0.00000000    0.00000000
     atom   26 type  1   force =     0.00000000    0.00000000    0.00000000
     atom   27 type  1   force =     0.00000000    0.00000000    0.00000000
     atom   28 type  1   force =     0.00000000    0.00000000    0.00000000
     atom   29 type  2   force =     0.00000000    0.00000000    0.00000000
     atom   30 type  2   force =     0.00000000    0.00000000    0.00000000
     atom   31 type  1   force =     0.00000000    0.00000000    0.00000000
     atom   32 type  1   force =     0.00000000    0.00000000    0.00000000
     atom   33 type  2   force =     0.00000000    0.00000000    0.00000000
     atom   34 type  2   force =     0.00000000    0.00000000    0.00000000
     atom   35 type  1   force =     0.00000000    0.00000000    0.00000000
     atom   36 type  1   force =     0.00000000    0.00000000    0.00000000
     atom   37 type  1   force =     0.00000000    0.00000000    0.00000000
     atom   38 type  1   force =     0.00000000    0.00000000    0.00000000
     atom   39 type  1   force =     0.00000000    0.00000000    0.00000000
     atom   40 type  1   force =     0.00000000    0.00000000    0.00000000
     atom   41 type  3   force =     0.00000000    0.00000000    0.00000000
     atom   42 type  3   force =     0.00000000    0.00000000    0.00000000
     atom   43 type  3   force =     0.00000000    0.00000000    0.00000000
     atom   44 type  3   force =     0.00000000    0.00000000    0.00000000
     atom   45 type  3   force =     0.00000000    0.00000000    0.00000000
     atom   46 type  3   force =     0.00000000    0.00000000    0.00000000
     atom   47 type  3   force =     0.00000000    0.00000000    0.00000000
     atom   48 type  3   force =     0.00000000    0.00000000    0.00000000
     atom   49 type  3   force =     0.00000000    0.00000000    0.00000000
     atom   50 type  3   force =     0.00000000    0.00000000    0.00000000
     The SCF correction term to forces
     atom    1 type  1   force =    -0.00000072   -0.00000000   -0.00000128
     atom    2 type  1   force =     0.00000097    0.00000000   -0.00000152
     atom    3 type  1   force =    -0.00000149   -0.00000000   -0.00000179
     atom    4 type  1   force =     0.00000184    0.00000000   -0.00000192
     atom    5 type  2   force =     0.00000033   -0.00000000   -0.00000252
     atom    6 type  2   force =    -0.00000057   -0.00000000   -0.00000519
     atom    7 type  1   force =     0.00000016    0.00000056   -0.00000118
     atom    8 type  1   force =    -0.00000029    0.00000046   -0.00000178
     atom    9 type  2   force =    -0.00000097    0.00000000   -0.00000364
     atom   10 type  2   force =     0.00000134    0.00000000   -0.00000490
     atom   11 type  1   force =     0.00000016   -0.00000056   -0.00000118
     atom   12 type  1   force =    -0.00000029   -0.00000046   -0.00000178
     atom   13 type  1   force =    -0.00000013   -0.00000000   -0.00000140
     atom   14 type  1   force =     0.00000016    0.00000000   -0.00000106
     atom   15 type  1   force =     0.00000020    0.00000000   -0.00000191
     atom   16 type  1   force =    -0.00000015    0.00000000   -0.00000233
     atom   17 type  2   force =    -0.00000018   -0.00000000    0.00000002
     atom   18 type  2   force =     0.00000020   -0.00000000    0.00000002
     atom   19 type  1   force =     0.00000033   -0.00000054    0.00000001
     atom   20 type  1   force =    -0.00000031   -0.00000101    0.00000001
     atom   21 type  2   force =    -0.00000040    0.00000000    0.00000002
     atom   22 type  2   force =     0.00000052    0.00000000    0.00000002
     atom   23 type  1   force =     0.00000033    0.00000054    0.00000001
     atom   24 type  1   force =    -0.00000031    0.00000101    0.00000001
     atom   25 type  1   force =     0.00000020    0.00000000    0.00000193
     atom   26 type  1   force =    -0.00000015    0.00000000    0.00000235
     atom   27 type  1   force =    -0.00000013   -0.00000000    0.00000141
     atom   28 type  1   force =     0.00000016   -0.00000000    0.00000108
     atom   29 type  2   force =     0.00000033   -0.00000000    0.00000254
     atom   30 type  2   force =    -0.00000057   -0.00000000    0.00000520
     atom   31 type  1   force =     0.00000016    0.00000056    0.00000118
     atom   32 type  1   force =    -0.00000029    0.00000046    0.00000179
     atom   33 type  2   force =    -0.00000097    0.00000000    0.00000365
     atom   34 type  2   force =     0.00000134    0.00000000    0.00000491
     atom   35 type  1   force =     0.00000016   -0.00000056    0.00000118
     atom   36 type  1   force =    -0.00000029   -0.00000046    0.00000179
     atom   37 type  1   force =    -0.00000150    0.00000000    0.00000179
     atom   38 type  1   force =     0.00000184    0.00000000    0.00000192
     atom   39 type  1   force =    -0.00000072    0.00000000    0.00000127
     atom   40 type  1   force =     0.00000097    0.00000000    0.00000151
     atom   41 type  3   force =     0.00000007   -0.00000000   -0.00000025
     atom   42 type  3   force =     0.00000007   -0.00000000    0.00000025
     atom   43 type  3   force =    -0.00000016   -0.00000000   -0.00000028
     atom   44 type  3   force =    -0.00000016   -0.00000000    0.00000028
     atom   45 type  3   force =     0.00000017    0.00000004   -0.00000027
     atom   46 type  3   force =     0.00000017    0.00000004    0.00000027
     atom   47 type  3   force =    -0.00000016    0.00000000   -0.00000028
     atom   48 type  3   force =    -0.00000016    0.00000000    0.00000028
     atom   49 type  3   force =     0.00000017   -0.00000004   -0.00000027
     atom   50 type  3   force =     0.00000017   -0.00000004    0.00000027

     Total force =     0.000305     Total SCF correction =     0.000015
     Energy error            =      1.9E-07 Ry
     Gradient error          =      1.3E-04 Ry/Bohr

     number of scf cycles    =  25
     number of bfgs steps    =  24

     energy             old  =   -3440.0388663401 Ry
     energy             new  =   -3440.0388665297 Ry

     CASE: energy            _new < energy            _old

     new trust radius        =       0.0003800036 bohr
     new conv_thr            =            1.0E-11 Ry


ATOMIC_POSITIONS (crystal)
O             0.0225351687        0.5000000000        0.2638973003
O             0.4758966407        0.5000000000        0.2673594572
O            -0.0018307395        0.0000000000        0.2890005668
O             0.4965919405        0.0000000000        0.2888421462
Ru            0.2476527565        0.0000000000        0.3606977208
Ru            0.7476440375        0.0000000000        0.3595393131
O             0.2461852264        0.3082837551        0.3563297105
O             0.7498102022        0.3097932264        0.3532868434
Ru           -0.0008410008        0.5000000000        0.3562719921
Ru            0.4983490019        0.5000000000        0.3494338466
O             0.2461852264        0.6917162449        0.3563297105
O             0.7498102022        0.6902067736        0.3532868434
O            -0.0037731797        0.0000000000        0.4124354804
O             0.4985404414        0.0000000000        0.4124949713
O            -0.0032387955        0.5000000000        0.4455109434
O             0.4977059145        0.5000000000        0.4415425366
Ru           -0.0030796587        0.0000000000        0.5000010000
Ru            0.4974890211        0.0000000000        0.5000010000
O             0.2474650963        0.1886009971        0.5000010000
O             0.7466777294        0.1888926924        0.5000010000
Ru            0.2521718999        0.5000000000        0.5000010000
Ru            0.7433682006        0.5000000000        0.5000010000
O             0.2474650963        0.8114000029        0.5000010000
O             0.7466777294        0.8111083076        0.5000010000
O            -0.0032387955        0.5000000000        0.5544900566
O             0.4977059145        0.5000000000        0.5584584634
O            -0.0037731797        0.0000000000        0.5875655196
O             0.4985404414        0.0000000000        0.5875060287
Ru            0.2476527565        0.0000000000        0.6393032792
Ru            0.7476440375        0.0000000000        0.6404616869
O             0.2461852264        0.3082837551        0.6436712895
O             0.7498102022        0.3097932264        0.6467141566
Ru           -0.0008410008        0.5000000000        0.6437290079
Ru            0.4983490019        0.5000000000        0.6505671534
O             0.2461852264        0.6917162449        0.6436712895
O             0.7498102022        0.6902067736        0.6467141566
O            -0.0018307395        0.0000000000        0.7110014332
O             0.4965919405        0.0000000000        0.7111598538
O             0.0225351687        0.5000000000        0.7361036997
O             0.4758966407        0.5000000000        0.7326415428
H             0.1737286992        0.5000000000        0.2577013352
H             0.1737286992        0.5000000000        0.7422986648
H            -0.0007247370        0.1353845023        0.2640162947
H            -0.0007247370        0.1353845023        0.7359837053
H             0.4945075871        0.1340740692        0.2635398105
H             0.4945075871        0.1340740692        0.7364601895
H            -0.0007247370        0.8646154977        0.2640162947
H            -0.0007247370        0.8646154977        0.7359837053
H             0.4945075871        0.8659259308        0.2635398105
H             0.4945075871        0.8659259308        0.7364601895



     Writing config-only to output data dir /storage/home/mgm6007/ixd4/Maria/Strain2_Files/RuO2-110-0-02345/RuO2-110-0-02345.save/
     NEW-OLD atomic charge density approx. for the potential

     Check: negative core charge=   -0.000001

     negative rho (up, down):  9.729E-05 0.000E+00

     add environment contribution to local potential
     Polarization accuracy = 2.8E-12, # of iterations =  42

     total cpu time spent up to now is   213539.2 secs

     per-process dynamical memory:   230.4 Mb

     Self-consistent Calculation

     iteration #  1     ecut=    50.00 Ry     beta= 0.70
     Davidson diagonalization with overlap
     ethr =  1.00E-06,  avg # of iterations =  2.0

     Threshold (ethr) on eigenvalues was too large:
     Diagonalizing with lowered threshold

     Davidson diagonalization with overlap
     ethr =  4.92E-11,  avg # of iterations =  4.0

     negative rho (up, down):  9.654E-05 0.000E+00

     add environment contribution to local potential
     Polarization accuracy = 3.0E-12, # of iterations =  41

     total cpu time spent up to now is   214364.5 secs

     total energy              =   -3440.03886663 Ry
     estimated scf accuracy    <       0.00000014 Ry
     electrostatic embedding   =      -0.07787736 Ry
     cavitation energy         =       0.02064138 Ry
     PV energy                 =      -0.08461519 Ry
     correction to one-el term =     173.02400995 Ry

     iteration #  2     ecut=    50.00 Ry     beta= 0.70
     Davidson diagonalization with overlap
     ethr =  3.86E-11,  avg # of iterations =  2.0

     negative rho (up, down):  9.631E-05 0.000E+00

     add environment contribution to local potential
     Polarization accuracy = 3.0E-12, # of iterations =  41

     total cpu time spent up to now is   215339.4 secs

     total energy              =   -3440.03886661 Ry
     estimated scf accuracy    <       0.00000028 Ry
     electrostatic embedding   =      -0.07787358 Ry
     cavitation energy         =       0.02064124 Ry
     PV energy                 =      -0.08461541 Ry
     correction to one-el term =     173.02336594 Ry

     iteration #  3     ecut=    50.00 Ry     beta= 0.70
     Davidson diagonalization with overlap
     ethr =  3.86E-11,  avg # of iterations =  1.0

     negative rho (up, down):  9.565E-05 0.000E+00

     add environment contribution to local potential
     Polarization accuracy = 3.0E-12, # of iterations =  41

     total cpu time spent up to now is   216321.8 secs

     total energy              =   -3440.03886662 Ry
     estimated scf accuracy    <       0.00000003 Ry
     electrostatic embedding   =      -0.07787282 Ry
     cavitation energy         =       0.02064121 Ry
     PV energy                 =      -0.08461545 Ry
     correction to one-el term =     173.02315526 Ry

     iteration #  4     ecut=    50.00 Ry     beta= 0.70
     Davidson diagonalization with overlap
     ethr =  7.18E-12,  avg # of iterations =  2.0

     negative rho (up, down):  9.541E-05 0.000E+00

     add environment contribution to local potential
     Polarization accuracy = 3.0E-12, # of iterations =  41

     total cpu time spent up to now is   217423.6 secs

     total energy              =   -3440.03886662 Ry
     estimated scf accuracy    <       0.00000001 Ry
     electrostatic embedding   =      -0.07787070 Ry
     cavitation energy         =       0.02064113 Ry
     PV energy                 =      -0.08461553 Ry
     correction to one-el term =     173.02249209 Ry

     iteration #  5     ecut=    50.00 Ry     beta= 0.70
     Davidson diagonalization with overlap
     ethr =  2.92E-12,  avg # of iterations =  1.0

     negative rho (up, down):  9.534E-05 0.000E+00

     add environment contribution to local potential
     Polarization accuracy = 3.0E-12, # of iterations =  41

     total cpu time spent up to now is   218344.1 secs

     total energy              =   -3440.03886662 Ry
     estimated scf accuracy    <          6.4E-09 Ry
     electrostatic embedding   =      -0.07787011 Ry
     cavitation energy         =       0.02064111 Ry
     PV energy                 =      -0.08461553 Ry
     correction to one-el term =     173.02220783 Ry

     iteration #  6     ecut=    50.00 Ry     beta= 0.70
     Davidson diagonalization with overlap
     ethr =  1.73E-12,  avg # of iterations =  1.0

     negative rho (up, down):  9.538E-05 0.000E+00

     add environment contribution to local potential
     Polarization accuracy = 3.0E-12, # of iterations =  41

     total cpu time spent up to now is   219322.2 secs

     total energy              =   -3440.03886662 Ry
     estimated scf accuracy    <          1.7E-09 Ry
     electrostatic embedding   =      -0.07786997 Ry
     cavitation energy         =       0.02064111 Ry
     PV energy                 =      -0.08461551 Ry
     correction to one-el term =     173.02201668 Ry

     iteration #  7     ecut=    50.00 Ry     beta= 0.70
     Davidson diagonalization with overlap
     ethr =  4.72E-13,  avg # of iterations =  2.0

     negative rho (up, down):  9.559E-05 0.000E+00

     add environment contribution to local potential
     Polarization accuracy = 3.0E-12, # of iterations =  41
