
     Program PWSCF v.7.2 starts on 24Jul2023 at 16:15:17 
        Git branch: heads/qe-7.2
        Last git commit: b4c5e8deeb7d1863e7553a87b45f8d22c21926a5
        Last git commit date: Mon Mar 27 16:12:09 2023 +0000
        Last git commit subject: Merge branch 'merge_fix_hubbard' into 'develop'

     This program is part of the open-source Quantum ESPRESSO suite
     for quantum simulation of materials; please cite
         "P. Giannozzi et al., J. Phys.:Condens. Matter 21 395502 (2009);
         "P. Giannozzi et al., J. Phys.:Condens. Matter 29 465901 (2017);
         "P. Giannozzi et al., J. Chem. Phys. 152 154105 (2020);
          URL http://www.quantum-espresso.org", 
     in publications or presentations arising from this work. More details at
     http://www.quantum-espresso.org/quote

     Parallel version (MPI), running on    20 processors

     MPI processes distributed on     1 nodes
     107960 MiB available memory on the printing compute node when the environment starts
 
     Reading input from RuO2-110-0-2.in

     Current dimensions of program PWSCF are:
     Max number of different atomic species (ntypx) = 10
     Max number of k-points (npk) =  40000
     Max angular momentum in pseudopotentials (lmaxx) =  4
 
     Reading input from environ.in:
     * Environ restarting
     * setting up water environment
     * using electronic solvent mode
     * setting boundary derivatives method to SCCS default
     
     file O.pbe-n-kjpaw_psl.0.1.UPF: wavefunction(s)  2P renormalized
     Message from routine setup:
     using ibrav=0 with symmetry is DISCOURAGED, use correct ibrav instead
 
     R & G space division:  proc/nbgrp/npool/nimage =      20
     Subspace diagonalization in iterative solution of the eigenvalue problem:
     one sub-group per band group will be used
     scalapack distributed-memory algorithm (size of sub-group:  2*  2 procs)

 
     Parallelization info
     --------------------
     sticks:   dense  smooth     PW     G-vecs:    dense   smooth      PW
     Min         276     110     29                54982    13912    1877
     Max         277     111     30                54993    13923    1888
     Sum        5537    2217    585              1099789   278381   37601
 
     Using Slab Decomposition
 


     bravais-lattice index     =            0
     lattice parameter (alat)  =      12.3824  a.u.
     unit-cell volume          =    5825.9133 (a.u.)^3
     number of atoms/cell      =           42
     number of atomic types    =            3
     number of electrons       =       362.00
     number of Kohn-Sham states=          217
     kinetic-energy cutoff     =      50.0000  Ry
     charge density cutoff     =     500.0000  Ry
     scf convergence threshold =      1.0E-09
     mixing beta               =       0.7000
     number of iterations used =            8  local-TF  mixing
     energy convergence thresh.=      1.0E-04
     force convergence thresh. =      1.0E-04
     Exchange-correlation= PBE
                           (   1   4   3   4   0   0   0)
     nstep                     =          200


     ================================================================================
 
                                  Environ Setup Summary

     ================================================================================
 
     Please cite

          O. Andreussi, I. Dabo and N. Marzari, J. Chem. Phys. 136, 064102 (2012)

     in publications or presentations arising from this work.

     ================================================================================
 
     Parameters
     ==========

     compensation onset threshold      =               0.1000E+00
     static permittivity               =                    78.30
     surface tension in input (dyn/cm) =                    47.90
     surface tension in internal units =               0.6153E-04
     external pressure in input (GPa)  =                    -0.36
     external pressure in inter. units =              -0.2447E-04

     Solvent Boundary
     ================

     solvent mode                      =               electronic
     derivatives method                =                    chain
     numerical core for derivatives    =                      fft
     switching function adopted        =                     SCCS
     density limit for vacuum region   =               0.5000E-02
     density limit for bulk solvent    =               0.1000E-03

     Electrostatic Setup
     ===================

     electrostatic problem to solve    =              generalized
     numerical solver adopted          =                       cg
     type of auxiliary density adopted =                     none
     numerical core for poisson        =                      fft
     type of pbc corrections           =                parabolic
     numerical core for corrections    =                      1da

     ================================================================================
 

     celldm(1)=  12.382447  celldm(2)=   0.000000  celldm(3)=   0.000000
     celldm(4)=   0.000000  celldm(5)=   0.000000  celldm(6)=   0.000000

     crystal axes: (cart. coord. in units of alat)
               a(1) = (   1.000000   0.000000   0.000000 )  
               a(2) = (   0.000000   0.908473   0.000000 )  
               a(3) = (   0.000000   0.000000   3.377790 )  

     reciprocal axes: (cart. coord. in units 2 pi/alat)
               b(1) = (  1.000000  0.000000  0.000000 )  
               b(2) = (  0.000000  1.100748  0.000000 )  
               b(3) = (  0.000000  0.000000  0.296052 )  


     PseudoPot. # 1 for O  read from file:
     /gpfs/group/ixd4/default/Simon/pseudopotentials/materialscloud/SSSP_1.3.0_PBE_efficiency/O.pbe-n-kjpaw_psl.0.1.UPF
     MD5 check sum: 0234752ac141de4415c5fc33072bef88
     Pseudo is Projector augmented-wave + core cor, Zval =  6.0
     Generated using "atomic" code by A. Dal Corso  v.5.0.99 svn rev. 10869
     Shape of augmentation charge: BESSEL
     Using radial grid of 1095 points,  4 beta functions with: 
                l(1) =   0
                l(2) =   0
                l(3) =   1
                l(4) =   1
     Q(r) pseudized with 0 coefficients 


     PseudoPot. # 2 for Ru read from file:
     /gpfs/group/ixd4/default/Simon/pseudopotentials/materialscloud/SSSP_1.3.0_PBE_efficiency/Ru_ONCV_PBE-1.0.oncvpsp.upf
     MD5 check sum: be037bb81c227cfb9b1461a9f099f4bd
     Pseudo is Norm-conserving, Zval = 16.0
     Generated using ONCVPSP code by D. R. Hamann
     Using radial grid of 1458 points,  6 beta functions with: 
                l(1) =   0
                l(2) =   0
                l(3) =   1
                l(4) =   1
                l(5) =   2
                l(6) =   2

     PseudoPot. # 3 for H  read from file:
     /gpfs/group/ixd4/default/Simon/pseudopotentials/materialscloud/SSSP_1.3.0_PBE_efficiency/H.pbe-rrkjus_psl.1.0.0.UPF
     MD5 check sum: f52b6d4d1c606e5624b1dc7b2218f220
     Pseudo is Ultrasoft, Zval =  1.0
     Generated using "atomic" code by A. Dal Corso  v.5.1
     Using radial grid of  929 points,  2 beta functions with: 
                l(1) =   0
                l(2) =   0
     Q(r) pseudized with 0 coefficients 


     atomic species   valence    mass     pseudopotential
        O              6.00    15.99940     O ( 1.00)
        Ru            16.00   101.07000     Ru( 1.00)
        H              1.00     1.00794     H ( 1.00)

      4 Sym. Ops. (no inversion) found



   Cartesian axes

     site n.     atom                  positions (alat units)
         1           O   tau(   1) = (   0.0000000   0.4587978   0.9262673  )
         2           O   tau(   2) = (   0.5000000   0.4572167   0.9275858  )
         3           O   tau(   3) = (   0.0000000   0.0000098   1.0168927  )
         4           O   tau(   4) = (   0.5000000   0.0012806   1.0454121  )
         5           Ru  tau(   5) = (   0.2540876   0.0032206   1.2060845  )
         6           Ru  tau(   6) = (   0.7459124   0.0032206   1.2060845  )
         7           O   tau(   7) = (   0.2499453   0.2820254   1.2106099  )
         8           O   tau(   8) = (   0.7500547   0.2820254   1.2106099  )
         9           Ru  tau(   9) = (   0.0000000   0.4575779   1.1872213  )
        10           Ru  tau(  10) = (   0.5000000   0.4574653   1.1879217  )
        11           O   tau(  11) = (   0.2507653   0.6322332   1.2120772  )
        12           O   tau(  12) = (   0.7492347   0.6322332   1.2120772  )
        13           O   tau(  13) = (   0.0000000   0.0024468   1.3945597  )
        14           O   tau(  14) = (   0.5000000   0.0024944   1.3923732  )
        15           O   tau(  15) = (   0.0000000   0.4567742   1.4940192  )
        16           O   tau(  16) = (   0.5000000   0.4563360   1.5076661  )
        17           Ru  tau(  17) = (   0.0000000   0.0019064   1.6888985  )
        18           Ru  tau(  18) = (   0.5000000   0.0028890   1.6888985  )
        19           O   tau(  19) = (   0.2488347   0.1785387   1.6888985  )
        20           O   tau(  20) = (   0.7511653   0.1785387   1.6888985  )
        21           Ru  tau(  21) = (   0.2470337   0.4564148   1.6888985  )
        22           Ru  tau(  22) = (   0.7529663   0.4564148   1.6888985  )
        23           O   tau(  23) = (   0.2489338   0.7346287   1.6888985  )
        24           O   tau(  24) = (   0.7510662   0.7346287   1.6888985  )
        25           O   tau(  25) = (   0.0000000   0.4567742   1.8837745  )
        26           O   tau(  26) = (   0.5000000   0.4563360   1.8701276  )
        27           O   tau(  27) = (   0.0000000   0.0024468   1.9832340  )
        28           O   tau(  28) = (   0.5000000   0.0024944   1.9854205  )
        29           Ru  tau(  29) = (   0.2540876   0.0032206   2.1717092  )
        30           Ru  tau(  30) = (   0.7459124   0.0032206   2.1717092  )
        31           O   tau(  31) = (   0.2499453   0.2820254   2.1671838  )
        32           O   tau(  32) = (   0.7500547   0.2820254   2.1671838  )
        33           Ru  tau(  33) = (   0.0000000   0.4575779   2.1905724  )
        34           Ru  tau(  34) = (   0.5000000   0.4574653   2.1898720  )
        35           O   tau(  35) = (   0.2507653   0.6322332   2.1657165  )
        36           O   tau(  36) = (   0.7492347   0.6322332   2.1657165  )
        37           O   tau(  37) = (   0.0000000   0.0000098   2.3609043  )
        38           O   tau(  38) = (   0.5000000   0.0012806   2.3323850  )
        39           O   tau(  39) = (   0.0000000   0.4587978   2.4515264  )
        40           O   tau(  40) = (   0.5000000   0.4572167   2.4502079  )
        41           H   tau(  41) = (   0.0000000   0.0514989   0.8786580  )
        42           H   tau(  42) = (   0.0000000   0.0514989   2.4991323  )

     number of k points=     1  Marzari-Vanderbilt smearing, width (Ry)=  0.0300
                       cart. coord. in units 2pi/alat
        k(    1) = (   0.2500000   0.2751871   0.0000000), wk =   2.0000000

     Dense  grid:  1099789 G-vectors     FFT dimensions: (  90,  81, 300)

     Smooth grid:   278381 G-vectors     FFT dimensions: (  60,  54, 192)

     Estimated max dynamical RAM per process >     168.38 MB

     Estimated total dynamical RAM >       3.29 GB

     Check: negative core charge=   -0.000001

     Initial potential from superposition of free atoms

     starting charge     361.9933, renormalised to     362.0000

     add environment contribution to local potential
     Polarization accuracy = 5.2E-12, # of iterations =  24

     negative rho (up, down):  3.990E-05 0.000E+00
     Starting wfcs are  234 randomized atomic wfcs
     Checking if some PAW data can be deallocated... 

     total cpu time spent up to now is      822.1 secs

     per-process dynamical memory:   137.5 Mb

     Self-consistent Calculation

     iteration #  1     ecut=    50.00 Ry     beta= 0.70
     Davidson diagonalization with overlap
     ethr =  1.00E-02,  avg # of iterations =  2.0

     total cpu time spent up to now is     1041.0 secs

     total energy              =   -3427.31963736 Ry
     estimated scf accuracy    <      10.80302092 Ry
     electrostatic embedding   =      -0.00164007 Ry
     cavitation energy         =       0.01962166 Ry
     PV energy                 =      -0.08161295 Ry
     correction to one-el term =     215.11700161 Ry

     iteration #  2     ecut=    50.00 Ry     beta= 0.70
     Davidson diagonalization with overlap
     ethr =  2.98E-03,  avg # of iterations =  2.0

     total cpu time spent up to now is     1251.2 secs

     total energy              =   -3429.67193107 Ry
     estimated scf accuracy    <       2.67144495 Ry
     electrostatic embedding   =      -0.00223148 Ry
     cavitation energy         =       0.01979797 Ry
     PV energy                 =      -0.08144288 Ry
     correction to one-el term =     215.11834666 Ry

     iteration #  3     ecut=    50.00 Ry     beta= 0.70
     Davidson diagonalization with overlap
     ethr =  7.38E-04,  avg # of iterations =  1.0

     total cpu time spent up to now is     1491.2 secs

     total energy              =   -3429.94293433 Ry
     estimated scf accuracy    <       0.52823152 Ry
     electrostatic embedding   =      -0.00258592 Ry
     cavitation energy         =       0.01983421 Ry
     PV energy                 =      -0.08173363 Ry
     correction to one-el term =     215.11938303 Ry

     iteration #  4     ecut=    50.00 Ry     beta= 0.70
     Davidson diagonalization with overlap
     ethr =  1.46E-04,  avg # of iterations =  2.0

     total cpu time spent up to now is     1720.4 secs

     total energy              =   -3429.99137068 Ry
     estimated scf accuracy    <       0.31392920 Ry
     electrostatic embedding   =      -0.00263488 Ry
     cavitation energy         =       0.02002474 Ry
     PV energy                 =      -0.08127876 Ry
     correction to one-el term =     215.11920748 Ry

     iteration #  5     ecut=    50.00 Ry     beta= 0.70
     Davidson diagonalization with overlap
     ethr =  8.67E-05,  avg # of iterations =  1.0

     total cpu time spent up to now is     1910.8 secs

     total energy              =   -3429.99196265 Ry
     estimated scf accuracy    <       0.10816240 Ry
     electrostatic embedding   =      -0.00275317 Ry
     cavitation energy         =       0.02027405 Ry
     PV energy                 =      -0.08084549 Ry
     correction to one-el term =     215.11925387 Ry

     iteration #  6     ecut=    50.00 Ry     beta= 0.70
     Davidson diagonalization with overlap
     ethr =  2.99E-05,  avg # of iterations =  2.0

     add environment contribution to local potential
     Polarization accuracy = 7.6E-12, # of iterations =  38

     total cpu time spent up to now is     2181.8 secs

     total energy              =   -3429.98883736 Ry
     estimated scf accuracy    <       0.06722032 Ry
     electrostatic embedding   =      -0.00282600 Ry
     cavitation energy         =       0.02066634 Ry
     PV energy                 =      -0.08008061 Ry
     correction to one-el term =     215.11905049 Ry

     iteration #  7     ecut=    50.00 Ry     beta= 0.70
     Davidson diagonalization with overlap
     ethr =  1.86E-05,  avg # of iterations = 10.0

     add environment contribution to local potential
     Polarization accuracy = 6.8E-12, # of iterations =  37

     total cpu time spent up to now is     2440.6 secs

     total energy              =   -3430.02477451 Ry
     estimated scf accuracy    <       0.07390883 Ry
     electrostatic embedding   =      -0.03096671 Ry
     cavitation energy         =       0.02094339 Ry
     PV energy                 =      -0.07951628 Ry
     correction to one-el term =     191.72701373 Ry

     iteration #  8     ecut=    50.00 Ry     beta= 0.70
     Davidson diagonalization with overlap
     ethr =  1.86E-05,  avg # of iterations =  1.0

     add environment contribution to local potential
     Polarization accuracy = 7.5E-12, # of iterations =  39

     total cpu time spent up to now is     2673.2 secs

     total energy              =   -3430.01837225 Ry
     estimated scf accuracy    <       0.06726850 Ry
     electrostatic embedding   =      -0.03112378 Ry
     cavitation energy         =       0.02094811 Ry
     PV energy                 =      -0.07950281 Ry
     correction to one-el term =     191.69460407 Ry

     iteration #  9     ecut=    50.00 Ry     beta= 0.70
     Davidson diagonalization with overlap
     ethr =  1.86E-05,  avg # of iterations =  1.0

     add environment contribution to local potential
     Polarization accuracy = 3.8E-12, # of iterations =  40

     total cpu time spent up to now is     2911.3 secs

     total energy              =   -3430.01858860 Ry
     estimated scf accuracy    <       0.02925364 Ry
     electrostatic embedding   =      -0.03585895 Ry
     cavitation energy         =       0.02109404 Ry
     PV energy                 =      -0.07914600 Ry
     correction to one-el term =     190.83918343 Ry

     iteration # 10     ecut=    50.00 Ry     beta= 0.70
     Davidson diagonalization with overlap
     ethr =  8.08E-06,  avg # of iterations =  2.0

     add environment contribution to local potential
     Polarization accuracy = 8.0E-12, # of iterations =  44

     total cpu time spent up to now is     3147.5 secs

     total energy              =   -3430.01989537 Ry
     estimated scf accuracy    <       0.01232205 Ry
     electrostatic embedding   =      -0.04332287 Ry
     cavitation energy         =       0.02124804 Ry
     PV energy                 =      -0.07875210 Ry
     correction to one-el term =     189.74501916 Ry

     iteration # 11     ecut=    50.00 Ry     beta= 0.70
     Davidson diagonalization with overlap
     ethr =  3.40E-06,  avg # of iterations =  2.0

     negative rho (up, down):  1.354E-08 0.000E+00

     add environment contribution to local potential
     Polarization accuracy = 8.0E-12, # of iterations =  44

     total cpu time spent up to now is     3291.1 secs

     total energy              =   -3430.02232751 Ry
     estimated scf accuracy    <       0.00540016 Ry
     electrostatic embedding   =      -0.05461187 Ry
     cavitation energy         =       0.02133460 Ry
     PV energy                 =      -0.07840164 Ry
     correction to one-el term =     188.95970665 Ry

     iteration # 12     ecut=    50.00 Ry     beta= 0.70
     Davidson diagonalization with overlap
     ethr =  1.49E-06,  avg # of iterations =  5.0

     negative rho (up, down):  8.101E-05 0.000E+00

     add environment contribution to local potential
     Polarization accuracy = 2.6E-12, # of iterations =  45

     total cpu time spent up to now is     3497.1 secs

     total energy              =   -3430.02293379 Ry
     estimated scf accuracy    <       0.00956897 Ry
     electrostatic embedding   =      -0.05978616 Ry
     cavitation energy         =       0.02128134 Ry
     PV energy                 =      -0.07835296 Ry
     correction to one-el term =     189.21672641 Ry

     iteration # 13     ecut=    50.00 Ry     beta= 0.70
     Davidson diagonalization with overlap
     ethr =  1.49E-06,  avg # of iterations =  2.0

     negative rho (up, down):  4.004E-05 0.000E+00

     add environment contribution to local potential
     Polarization accuracy = 2.5E-12, # of iterations =  44

     total cpu time spent up to now is     3695.0 secs

     total energy              =   -3430.02296225 Ry
     estimated scf accuracy    <       0.00459974 Ry
     electrostatic embedding   =      -0.06284294 Ry
     cavitation energy         =       0.02124519 Ry
     PV energy                 =      -0.07834929 Ry
     correction to one-el term =     189.36089507 Ry

     iteration # 14     ecut=    50.00 Ry     beta= 0.70
     Davidson diagonalization with overlap
     ethr =  1.27E-06,  avg # of iterations =  2.0

     negative rho (up, down):  4.768E-05 0.000E+00

     add environment contribution to local potential
     Polarization accuracy = 3.0E-12, # of iterations =  44

     total cpu time spent up to now is     3902.4 secs

     total energy              =   -3430.02330897 Ry
     estimated scf accuracy    <       0.00265416 Ry
     electrostatic embedding   =      -0.06402791 Ry
     cavitation energy         =       0.02110580 Ry
     PV energy                 =      -0.07847457 Ry
     correction to one-el term =     190.31637077 Ry

     iteration # 15     ecut=    50.00 Ry     beta= 0.70
     Davidson diagonalization with overlap
     ethr =  7.33E-07,  avg # of iterations =  2.0

     negative rho (up, down):  4.204E-05 0.000E+00

     add environment contribution to local potential
     Polarization accuracy = 2.7E-12, # of iterations =  43

     total cpu time spent up to now is     4146.0 secs

     total energy              =   -3430.02329849 Ry
     estimated scf accuracy    <       0.00204129 Ry
     electrostatic embedding   =      -0.06477910 Ry
     cavitation energy         =       0.02104752 Ry
     PV energy                 =      -0.07850973 Ry
     correction to one-el term =     190.90980985 Ry

     iteration # 16     ecut=    50.00 Ry     beta= 0.70
     Davidson diagonalization with overlap
     ethr =  5.64E-07,  avg # of iterations =  2.0

     negative rho (up, down):  2.844E-04 0.000E+00

     add environment contribution to local potential
     Polarization accuracy = 6.1E-12, # of iterations =  42

     total cpu time spent up to now is     4291.3 secs

     total energy              =   -3430.02367545 Ry
     estimated scf accuracy    <       0.00019561 Ry
     electrostatic embedding   =      -0.06103087 Ry
     cavitation energy         =       0.02095410 Ry
     PV energy                 =      -0.07863310 Ry
     correction to one-el term =     191.94808981 Ry

     iteration # 17     ecut=    50.00 Ry     beta= 0.70
     Davidson diagonalization with overlap
     ethr =  5.40E-08,  avg # of iterations =  3.0

     negative rho (up, down):  6.433E-04 0.000E+00

     add environment contribution to local potential
     Polarization accuracy = 3.3E-12, # of iterations =  43

     total cpu time spent up to now is     4482.7 secs

     total energy              =   -3430.02379113 Ry
     estimated scf accuracy    <       0.00008670 Ry
     electrostatic embedding   =      -0.05877580 Ry
     cavitation energy         =       0.02095442 Ry
     PV energy                 =      -0.07863912 Ry
     correction to one-el term =     192.23892027 Ry

     iteration # 18     ecut=    50.00 Ry     beta= 0.70
     Davidson diagonalization with overlap
     ethr =  2.40E-08,  avg # of iterations =  2.0

     negative rho (up, down):  6.503E-06 0.000E+00

     add environment contribution to local potential
     Polarization accuracy = 3.7E-12, # of iterations =  43

     total cpu time spent up to now is     4677.7 secs

     total energy              =   -3430.02382145 Ry
     estimated scf accuracy    <       0.00002144 Ry
     electrostatic embedding   =      -0.05801804 Ry
     cavitation energy         =       0.02096526 Ry
     PV energy                 =      -0.07862006 Ry
     correction to one-el term =     192.32645575 Ry

     iteration # 19     ecut=    50.00 Ry     beta= 0.70
     Davidson diagonalization with overlap
     ethr =  5.92E-09,  avg # of iterations =  3.0

     negative rho (up, down):  1.235E-04 0.000E+00

     add environment contribution to local potential
     Polarization accuracy = 3.9E-12, # of iterations =  43

     total cpu time spent up to now is     4923.6 secs

     total energy              =   -3430.02385459 Ry
     estimated scf accuracy    <       0.00001075 Ry
     electrostatic embedding   =      -0.05726578 Ry
     cavitation energy         =       0.02098075 Ry
     PV energy                 =      -0.07860796 Ry
     correction to one-el term =     192.30199789 Ry

     iteration # 20     ecut=    50.00 Ry     beta= 0.70
     Davidson diagonalization with overlap
     ethr =  2.97E-09,  avg # of iterations =  3.0

     negative rho (up, down):  7.463E-05 0.000E+00

     add environment contribution to local potential
     Polarization accuracy = 4.5E-12, # of iterations =  43

     total cpu time spent up to now is     5215.1 secs

     total energy              =   -3430.02387029 Ry
     estimated scf accuracy    <       0.00000422 Ry
     electrostatic embedding   =      -0.05678615 Ry
     cavitation energy         =       0.02098152 Ry
     PV energy                 =      -0.07860371 Ry
     correction to one-el term =     192.39806168 Ry

     iteration # 21     ecut=    50.00 Ry     beta= 0.70
     Davidson diagonalization with overlap
     ethr =  1.16E-09,  avg # of iterations =  4.0

     negative rho (up, down):  9.453E-05 0.000E+00

     add environment contribution to local potential
     Polarization accuracy = 7.6E-12, # of iterations =  42

     total cpu time spent up to now is     5389.6 secs

     total energy              =   -3430.02388991 Ry
     estimated scf accuracy    <       0.00000222 Ry
     electrostatic embedding   =      -0.05577416 Ry
     cavitation energy         =       0.02099155 Ry
     PV energy                 =      -0.07859510 Ry
     correction to one-el term =     192.48016178 Ry

     iteration # 22     ecut=    50.00 Ry     beta= 0.70
     Davidson diagonalization with overlap
     ethr =  6.15E-10,  avg # of iterations =  3.0

     negative rho (up, down):  1.377E-04 0.000E+00

     add environment contribution to local potential
     Polarization accuracy = 4.1E-12, # of iterations =  43

     total cpu time spent up to now is     5641.6 secs

     total energy              =   -3430.02389277 Ry
     estimated scf accuracy    <       0.00000114 Ry
     electrostatic embedding   =      -0.05554662 Ry
     cavitation energy         =       0.02099267 Ry
     PV energy                 =      -0.07859572 Ry
     correction to one-el term =     192.50089494 Ry

     iteration # 23     ecut=    50.00 Ry     beta= 0.70
     Davidson diagonalization with overlap
     ethr =  3.15E-10,  avg # of iterations =  4.0

     negative rho (up, down):  1.698E-04 0.000E+00

     add environment contribution to local potential
     Polarization accuracy = 4.0E-12, # of iterations =  43

     total cpu time spent up to now is     5898.1 secs

     total energy              =   -3430.02389647 Ry
     estimated scf accuracy    <       0.00000060 Ry
     electrostatic embedding   =      -0.05524194 Ry
     cavitation energy         =       0.02099383 Ry
     PV energy                 =      -0.07859683 Ry
     correction to one-el term =     192.53028549 Ry

     iteration # 24     ecut=    50.00 Ry     beta= 0.70
     Davidson diagonalization with overlap
     ethr =  1.64E-10,  avg # of iterations =  2.0

     negative rho (up, down):  1.783E-04 0.000E+00

     add environment contribution to local potential
     Polarization accuracy = 8.3E-12, # of iterations =  42

     total cpu time spent up to now is     6066.7 secs

     total energy              =   -3430.02389768 Ry
     estimated scf accuracy    <       0.00000022 Ry
     electrostatic embedding   =      -0.05514922 Ry
     cavitation energy         =       0.02099367 Ry
     PV energy                 =      -0.07859842 Ry
     correction to one-el term =     192.53998542 Ry

     iteration # 25     ecut=    50.00 Ry     beta= 0.70
     Davidson diagonalization with overlap
     ethr =  5.96E-11,  avg # of iterations =  4.0

     negative rho (up, down):  1.699E-04 0.000E+00

     add environment contribution to local potential
     Polarization accuracy = 4.1E-12, # of iterations =  43

     total cpu time spent up to now is     6262.9 secs

     total energy              =   -3430.02389923 Ry
     estimated scf accuracy    <       0.00000013 Ry
     electrostatic embedding   =      -0.05503726 Ry
     cavitation energy         =       0.02099421 Ry
     PV energy                 =      -0.07859942 Ry
     correction to one-el term =     192.54753096 Ry

     iteration # 26     ecut=    50.00 Ry     beta= 0.70
     Davidson diagonalization with overlap
     ethr =  3.64E-11,  avg # of iterations =  3.0

     negative rho (up, down):  1.590E-04 0.000E+00

     add environment contribution to local potential
     Polarization accuracy = 4.0E-12, # of iterations =  43

     total cpu time spent up to now is     6541.4 secs

     total energy              =   -3430.02390028 Ry
     estimated scf accuracy    <       0.00000008 Ry
     electrostatic embedding   =      -0.05496699 Ry
     cavitation energy         =       0.02099470 Ry
     PV energy                 =      -0.07860023 Ry
     correction to one-el term =     192.55060543 Ry

     iteration # 27     ecut=    50.00 Ry     beta= 0.70
     Davidson diagonalization with overlap
     ethr =  2.17E-11,  avg # of iterations =  2.0

     negative rho (up, down):  1.543E-04 0.000E+00

     add environment contribution to local potential
     Polarization accuracy = 7.0E-12, # of iterations =  42

     total cpu time spent up to now is     6786.4 secs

     total energy              =   -3430.02390070 Ry
     estimated scf accuracy    <       0.00000007 Ry
     electrostatic embedding   =      -0.05495318 Ry
     cavitation energy         =       0.02099497 Ry
     PV energy                 =      -0.07860028 Ry
     correction to one-el term =     192.55047066 Ry

     iteration # 28     ecut=    50.00 Ry     beta= 0.70
     Davidson diagonalization with overlap
     ethr =  1.92E-11,  avg # of iterations =  2.0

     negative rho (up, down):  1.570E-04 0.000E+00

     add environment contribution to local potential
     Polarization accuracy = 6.9E-12, # of iterations =  42

     total cpu time spent up to now is     6922.6 secs

     total energy              =   -3430.02390082 Ry
     estimated scf accuracy    <       0.00000007 Ry
     electrostatic embedding   =      -0.05497566 Ry
     cavitation energy         =       0.02099483 Ry
     PV energy                 =      -0.07860043 Ry
     correction to one-el term =     192.54841051 Ry

     iteration # 29     ecut=    50.00 Ry     beta= 0.70
     Davidson diagonalization with overlap
     ethr =  1.87E-11,  avg # of iterations =  1.0

     negative rho (up, down):  1.654E-04 0.000E+00

     add environment contribution to local potential
     Polarization accuracy = 4.1E-12, # of iterations =  43

     total cpu time spent up to now is     7141.1 secs

     total energy              =   -3430.02390090 Ry
     estimated scf accuracy    <       0.00000006 Ry
     electrostatic embedding   =      -0.05497685 Ry
     cavitation energy         =       0.02099480 Ry
     PV energy                 =      -0.07860037 Ry
     correction to one-el term =     192.54888453 Ry

     iteration # 30     ecut=    50.00 Ry     beta= 0.70
     Davidson diagonalization with overlap
     ethr =  1.78E-11,  avg # of iterations =  2.0

     negative rho (up, down):  1.690E-04 0.000E+00

     add environment contribution to local potential
     Polarization accuracy = 4.0E-12, # of iterations =  43

     total cpu time spent up to now is     7310.5 secs

     total energy              =   -3430.02390267 Ry
     estimated scf accuracy    <       0.00000006 Ry
     electrostatic embedding   =      -0.05498139 Ry
     cavitation energy         =       0.02099457 Ry
     PV energy                 =      -0.07860058 Ry
     correction to one-el term =     192.55066144 Ry

     iteration # 31     ecut=    50.00 Ry     beta= 0.70
     Davidson diagonalization with overlap
     ethr =  1.59E-11,  avg # of iterations =  4.0

     negative rho (up, down):  1.877E-04 0.000E+00

     add environment contribution to local potential
     Polarization accuracy = 4.0E-12, # of iterations =  43

     total cpu time spent up to now is     7549.6 secs

     total energy              =   -3430.02390889 Ry
     estimated scf accuracy    <       0.00000005 Ry
     electrostatic embedding   =      -0.05502609 Ry
     cavitation energy         =       0.02099409 Ry
     PV energy                 =      -0.07860085 Ry
     correction to one-el term =     192.54976295 Ry

     iteration # 32     ecut=    50.00 Ry     beta= 0.70
     Davidson diagonalization with overlap
     ethr =  1.48E-11,  avg # of iterations =  2.0

     negative rho (up, down):  1.869E-04 0.000E+00

     add environment contribution to local potential
     Polarization accuracy = 4.0E-12, # of iterations =  43

     total cpu time spent up to now is     7745.4 secs

     total energy              =   -3430.02391235 Ry
     estimated scf accuracy    <       0.00000004 Ry
     electrostatic embedding   =      -0.05505084 Ry
     cavitation energy         =       0.02099381 Ry
     PV energy                 =      -0.07860031 Ry
     correction to one-el term =     192.54995583 Ry

     iteration # 33     ecut=    50.00 Ry     beta= 0.70
     Davidson diagonalization with overlap
     ethr =  9.76E-12,  avg # of iterations =  5.0

     negative rho (up, down):  1.776E-04 0.000E+00

     add environment contribution to local potential
     Polarization accuracy = 3.8E-12, # of iterations =  43

     total cpu time spent up to now is     7981.0 secs

     total energy              =   -3430.02391837 Ry
     estimated scf accuracy    <       0.00000001 Ry
     electrostatic embedding   =      -0.05503110 Ry
     cavitation energy         =       0.02099392 Ry
     PV energy                 =      -0.07860057 Ry
     correction to one-el term =     192.55113337 Ry

     iteration # 34     ecut=    50.00 Ry     beta= 0.70
     Davidson diagonalization with overlap
     ethr =  2.78E-12,  avg # of iterations =  5.0

     negative rho (up, down):  1.722E-04 0.000E+00

     add environment contribution to local potential
     Polarization accuracy = 3.9E-12, # of iterations =  43

     total cpu time spent up to now is     8168.4 secs

     total energy              =   -3430.02392322 Ry
     estimated scf accuracy    <          1.8E-09 Ry
     electrostatic embedding   =      -0.05499426 Ry
     cavitation energy         =       0.02099441 Ry
     PV energy                 =      -0.07860037 Ry
     correction to one-el term =     192.55080570 Ry

     iteration # 35     ecut=    50.00 Ry     beta= 0.70
     Davidson diagonalization with overlap
     ethr =  4.89E-13,  avg # of iterations =  2.0

     negative rho (up, down):  1.681E-04 0.000E+00

     add environment contribution to local potential
     Polarization accuracy = 4.1E-12, # of iterations =  43

     total cpu time spent up to now is     8415.1 secs

     total energy              =   -3430.02392368 Ry
     estimated scf accuracy    <          1.4E-09 Ry
     electrostatic embedding   =      -0.05499510 Ry
     cavitation energy         =       0.02099449 Ry
     PV energy                 =      -0.07860029 Ry
     correction to one-el term =     192.54991139 Ry

     iteration # 36     ecut=    50.00 Ry     beta= 0.70
     Davidson diagonalization with overlap
     ethr =  3.77E-13,  avg # of iterations =  4.0

     negative rho (up, down):  1.627E-04 0.000E+00

     the potential shift due to the Gaussian-smeared nuclei is    -1.3280 ev

     total cpu time spent up to now is     8567.4 secs

     End of self-consistent calculation

          k = 0.2500 0.2752 0.0000 ( 34780 PWs)   bands (ev):

   -78.8708 -78.8587 -78.7757 -78.7635 -78.3081 -78.3042 -78.2964 -78.2925
   -77.9421 -77.9386 -77.8397 -77.7300 -49.3963 -49.3841 -49.3216 -49.3095
   -48.8087 -48.7965 -48.6931 -48.6810 -48.6552 -48.6434 -48.6392 -48.6275
   -48.4629 -48.4508 -48.3877 -48.3831 -48.3534 -48.3413 -48.2811 -48.2695
   -48.2025 -48.1910 -48.1331 -48.1203 -48.1149 -48.1039 -48.0926 -47.9570
   -47.8278 -47.8205 -47.7544 -47.7484 -47.7368 -47.6916 -47.6532 -47.5550
   -24.5753 -24.4861 -24.2706 -24.1010 -24.0722 -23.9604 -23.9225 -23.9137
   -23.5548 -23.3536 -23.3402 -23.3319 -23.3149 -23.2264 -23.1512 -23.1435
   -23.0977 -22.9993 -22.9615 -22.9443 -22.8091 -22.8015 -22.5465 -22.3799
   -22.3237 -22.3151 -22.2764 -22.1059 -12.8179 -12.8043 -12.5755 -12.5142
   -12.3254 -12.2523 -12.1681 -12.0544 -11.8788 -11.8551 -11.7607 -11.7500
   -11.6732 -11.6400 -11.4268 -11.4227 -11.3998 -11.2611 -11.2288 -11.2099
   -11.1646 -11.1153 -10.8804 -10.7875 -10.6990 -10.6747 -10.4996 -10.3269
   -10.2718 -10.1778 -10.0720 -10.0102  -9.9756  -9.9069  -9.8899  -9.7766
    -9.7239  -9.7128  -9.6465  -9.6151  -9.5178  -9.4755  -9.3052  -9.2590
    -9.1729  -8.9958  -8.9501  -8.8828  -8.8322  -8.7768  -8.6995  -8.6954
    -8.6858  -8.6528  -8.6036  -8.5345  -8.5194  -8.4960  -8.4833  -8.2885
    -8.1893  -8.1459  -8.0804  -7.9377  -7.8021  -7.7963  -7.7271  -7.5845
    -7.5297  -7.4835  -7.3627  -7.2610  -7.2235  -7.2135  -7.1256  -7.0486
    -6.9913  -6.9462  -6.8737  -6.7929  -6.7278  -6.6958  -6.6211  -6.4414
    -5.7712  -5.7512  -5.6458  -5.5027  -5.4365  -5.3762  -5.3193  -5.2210
    -5.1956  -5.1485  -5.1405  -5.1151  -5.0568  -5.0414  -4.9025  -4.7913
    -4.7581  -4.7082  -4.6624  -4.6076  -4.5659  -4.4426  -4.2978  -4.2025
    -4.1875  -4.0704  -4.0393  -3.9999  -3.7428  -3.6814  -3.6431  -3.6359
    -3.5739  -3.5627  -3.2499  -3.1658  -2.7573  -2.5973  -2.5800  -2.2920
    -2.1986  -2.0964  -1.3545  -1.1848  -1.0296  -1.0010  -0.9972  -0.8392
    -0.6340  -0.4726  -0.4540  -0.3449  -0.1191   0.0517   0.1057   0.4101
     0.4930

     the Fermi energy is    -4.4727 ev

!    total energy              =   -3430.02392426 Ry
     estimated scf accuracy    <          9.2E-10 Ry
     smearing contrib. (-TS)   =       0.02872824 Ry
     internal energy E=F+TS    =   -3430.05265251 Ry

     The total energy is F=E-TS. E is the sum of the following terms:
     one-electron contribution =  -25610.29525827 Ry
     hartree contribution      =   12779.83099247 Ry
     xc contribution           =    -444.73052514 Ry
     ewald contribution        =    9919.30470692 Ry
     one-center paw contrib.   =    -266.59974394 Ry
     electrostatic embedding   =      -0.05498509 Ry
     cavitation energy         =       0.02099463 Ry
     PV energy                 =      -0.07860027 Ry
     correction to one-el term =     192.54976618 Ry

     WARNING: you are using the parabolic pbc correction;
              the potential shift above must be added to 
              band and Fermi energies.

     convergence has been achieved in  36 iterations

     negative rho (up, down):  1.627E-04 0.000E+00

     Forces acting on atoms (cartesian axes, Ry/au):

     atom    1 type  1   force =     0.00000000    0.00013877   -0.01411485
     atom    2 type  1   force =     0.00000000   -0.00019623   -0.01487220
     atom    3 type  1   force =     0.00000000   -0.00912214    0.03049366
     atom    4 type  1   force =     0.00000000    0.00008431   -0.02084412
     atom    5 type  2   force =     0.02732561   -0.00194971    0.00096804
     atom    6 type  2   force =    -0.02732561   -0.00194971    0.00096804
     atom    7 type  1   force =    -0.00370443    0.05611661    0.00222128
     atom    8 type  1   force =     0.00370443    0.05611661    0.00222128
     atom    9 type  2   force =     0.00000000    0.00036448    0.01656389
     atom   10 type  2   force =     0.00000000   -0.00196733    0.02038901
     atom   11 type  1   force =    -0.00324676   -0.05250047    0.00236676
     atom   12 type  1   force =     0.00324676   -0.05250047    0.00236676
     atom   13 type  1   force =     0.00000000    0.00044021   -0.00938044
     atom   14 type  1   force =     0.00000000    0.00040691    0.00236217
     atom   15 type  1   force =     0.00000000   -0.00028577    0.01016538
     atom   16 type  1   force =     0.00000000   -0.00013112   -0.01538140
     atom   17 type  2   force =     0.00000000    0.00090332    0.00000000
     atom   18 type  2   force =     0.00000000   -0.00163814    0.00000000
     atom   19 type  1   force =     0.00407868   -0.07057480    0.00000000
     atom   20 type  1   force =    -0.00407868   -0.07057480    0.00000000
     atom   21 type  2   force =     0.01481970    0.00203657    0.00000000
     atom   22 type  2   force =    -0.01481970    0.00203657    0.00000000
     atom   23 type  1   force =     0.00559317    0.06893803    0.00000000
     atom   24 type  1   force =    -0.00559317    0.06893803    0.00000000
     atom   25 type  1   force =     0.00000000   -0.00028577   -0.01016538
     atom   26 type  1   force =     0.00000000   -0.00013112    0.01538140
     atom   27 type  1   force =     0.00000000    0.00044021    0.00938044
     atom   28 type  1   force =     0.00000000    0.00040691   -0.00236217
     atom   29 type  2   force =     0.02732561   -0.00194971   -0.00096804
     atom   30 type  2   force =    -0.02732561   -0.00194971   -0.00096804
     atom   31 type  1   force =    -0.00370443    0.05611661   -0.00222128
     atom   32 type  1   force =     0.00370443    0.05611661   -0.00222128
     atom   33 type  2   force =     0.00000000    0.00036448   -0.01656389
     atom   34 type  2   force =     0.00000000   -0.00196733   -0.02038901
     atom   35 type  1   force =    -0.00324676   -0.05250047   -0.00236676
     atom   36 type  1   force =     0.00324676   -0.05250047   -0.00236676
     atom   37 type  1   force =     0.00000000   -0.00912214   -0.03049366
     atom   38 type  1   force =     0.00000000    0.00008431    0.02084412
     atom   39 type  1   force =     0.00000000    0.00013877    0.01411485
     atom   40 type  1   force =     0.00000000   -0.00019623    0.01487220
     atom   41 type  3   force =     0.00000000    0.00690266   -0.02106322
     atom   42 type  3   force =     0.00000000    0.00690266    0.02106322
     The non-local contrib.  to forces
     atom    1 type  1   force =     0.00000000   -0.02332699    1.31307472
     atom    2 type  1   force =     0.00000000   -0.00010951    1.33759498
     atom    3 type  1   force =     0.00000000    0.74448473   -0.76799355
     atom    4 type  1   force =     0.00000000    0.02353587    1.08168916
     atom    5 type  2   force =     0.02715068    0.00080501   -0.01349593
     atom    6 type  2   force =    -0.02715068    0.00080501   -0.01349593
     atom    7 type  1   force =     0.00166534   -0.03429369   -0.11819977
     atom    8 type  1   force =    -0.00166534   -0.03429369   -0.11819977
     atom    9 type  2   force =     0.00000000    0.00006136   -0.09127284
     atom   10 type  2   force =     0.00000000   -0.00203710   -0.07169552
     atom   11 type  1   force =     0.01018311    0.02241540   -0.12746059
     atom   12 type  1   force =    -0.01018311    0.02241540   -0.12746059
     atom   13 type  1   force =     0.00000000    0.00013155    0.09532215
     atom   14 type  1   force =     0.00000000    0.02037027   -0.02587881
     atom   15 type  1   force =     0.00000000   -0.00149554    0.19529290
     atom   16 type  1   force =     0.00000000    0.00024007    0.19153326
     atom   17 type  2   force =     0.00000000    0.00034945    0.00000000
     atom   18 type  2   force =     0.00000000   -0.00024973    0.00000000
     atom   19 type  1   force =    -0.01580843    0.05935284    0.00000000
     atom   20 type  1   force =     0.01580843    0.05935284    0.00000000
     atom   21 type  2   force =     0.00005494   -0.00002715    0.00000000
     atom   22 type  2   force =    -0.00005494   -0.00002715    0.00000000
     atom   23 type  1   force =    -0.02557036   -0.05508472    0.00000000
     atom   24 type  1   force =     0.02557036   -0.05508472    0.00000000
     atom   25 type  1   force =     0.00000000   -0.00149554   -0.19529290
     atom   26 type  1   force =     0.00000000    0.00024007   -0.19153326
     atom   27 type  1   force =     0.00000000    0.00013155   -0.09532215
     atom   28 type  1   force =     0.00000000    0.02037027    0.02587881
     atom   29 type  2   force =     0.02715068    0.00080501    0.01349593
     atom   30 type  2   force =    -0.02715068    0.00080501    0.01349593
     atom   31 type  1   force =     0.00166534   -0.03429369    0.11819977
     atom   32 type  1   force =    -0.00166534   -0.03429369    0.11819977
     atom   33 type  2   force =     0.00000000    0.00006136    0.09127284
     atom   34 type  2   force =     0.00000000   -0.00203710    0.07169552
     atom   35 type  1   force =     0.01018311    0.02241540    0.12746059
     atom   36 type  1   force =    -0.01018311    0.02241540    0.12746059
     atom   37 type  1   force =     0.00000000    0.74448473    0.76799355
     atom   38 type  1   force =     0.00000000    0.02353587   -1.08168916
     atom   39 type  1   force =     0.00000000   -0.02332699   -1.31307472
     atom   40 type  1   force =     0.00000000   -0.00010951   -1.33759498
     atom   41 type  3   force =     0.00000000   -0.03931236    0.10979440
     atom   42 type  3   force =     0.00000000   -0.03931236   -0.10979440
     The ionic contribution  to forces
     atom    1 type  1   force =    -0.00000000    0.15268196 -102.04200975
     atom    2 type  1   force =     0.00000000   -0.02248707 -102.33869539
     atom    3 type  1   force =    -0.00000000   -1.18729704  -91.12998260
     atom    4 type  1   force =    -0.00000000   -0.02830970  -94.75968082
     atom    5 type  2   force =    -2.78272576    0.05776465 -173.28413614
     atom    6 type  2   force =     2.78272576    0.05776465 -173.28413614
     atom    7 type  1   force =    -0.25123451    0.70614944  -62.77259887
     atom    8 type  1   force =     0.25123451    0.70614944  -62.77259887
     atom    9 type  2   force =    -0.00000000    0.01291031 -174.32983580
     atom   10 type  2   force =    -0.00000000   -0.13949883 -173.22370089
     atom   11 type  1   force =    -0.32023971   -0.65132865  -62.47052296
     atom   12 type  1   force =     0.32023971   -0.65132865  -62.47052296
     atom   13 type  1   force =     0.00000000    0.01820150  -39.27996862
     atom   14 type  1   force =     0.00000000   -0.00360385  -37.76277609
     atom   15 type  1   force =     0.00000000   -0.02821822  -27.40752065
     atom   16 type  1   force =     0.00000000   -0.01388457  -27.05503965
     atom   17 type  2   force =    -0.00000000    0.02813009   -0.00045216
     atom   18 type  2   force =     0.00000000   -0.06426742   -0.00044787
     atom   19 type  1   force =     0.07796222   -0.68262461   -0.00007775
     atom   20 type  1   force =    -0.07796222   -0.68262461   -0.00007775
     atom   21 type  2   force =    -0.55923850    0.03054233   -0.00023544
     atom   22 type  2   force =     0.55923850    0.03054233   -0.00023544
     atom   23 type  1   force =     0.19250627    0.64783161   -0.00007779
     atom   24 type  1   force =    -0.19250627    0.64783161   -0.00007779
     atom   25 type  1   force =    -0.00000000   -0.02821773   27.40735497
     atom   26 type  1   force =    -0.00000000   -0.01388407   27.05482148
     atom   27 type  1   force =     0.00000000    0.01820122   39.28027705
     atom   28 type  1   force =     0.00000000   -0.00360509   37.76309936
     atom   29 type  2   force =    -2.78267291    0.05775810  173.28437561
     atom   30 type  2   force =     2.78267291    0.05775810  173.28437561
     atom   31 type  1   force =    -0.25123110    0.70612183   62.77266479
     atom   32 type  1   force =     0.25123110    0.70612183   62.77266479
     atom   33 type  2   force =     0.00000000    0.01291532  174.32998322
     atom   34 type  2   force =    -0.00000000   -0.13949692  173.22383752
     atom   35 type  1   force =    -0.32023728   -0.65129937   62.47059012
     atom   36 type  1   force =     0.32023728   -0.65129937   62.47059012
     atom   37 type  1   force =    -0.00000000   -1.18745559   91.12979737
     atom   38 type  1   force =    -0.00000000   -0.02830803   94.75984147
     atom   39 type  1   force =     0.00000000    0.15268192  102.04206713
     atom   40 type  1   force =     0.00000000   -0.02248735  102.33875182
     atom   41 type  3   force =     0.00000000    1.03665357  -18.34008036
     atom   42 type  3   force =     0.00000000    1.03681493   18.34039613
     The local contribution  to forces
     atom    1 type  1   force =     0.00000000   -0.08364624  100.67416490
     atom    2 type  1   force =     0.00000000    0.03366371  100.91424380
     atom    3 type  1   force =    -0.00000000    0.39278875   92.04093258
     atom    4 type  1   force =     0.00000000   -0.00427325   93.62620992
     atom    5 type  2   force =     2.83778666   -0.07892310  173.33091800
     atom    6 type  2   force =    -2.83778666   -0.07892310  173.33091800
     atom    7 type  1   force =     0.26228476   -0.60041020   62.89258061
     atom    8 type  1   force =    -0.26228476   -0.60041020   62.89258061
     atom    9 type  2   force =     0.00000000    0.01319433  174.42472891
     atom   10 type  2   force =    -0.00000000    0.15088018  173.24585899
     atom   11 type  1   force =     0.31907051    0.56618137   62.58840395
     atom   12 type  1   force =    -0.31907051    0.56618137   62.58840395
     atom   13 type  1   force =     0.00000000   -0.02022048   39.18440926
     atom   14 type  1   force =     0.00000000   -0.01750947   37.78716641
     atom   15 type  1   force =     0.00000000    0.03054146   27.22453545
     atom   16 type  1   force =     0.00000000    0.01424140   26.84599345
     atom   17 type  2   force =    -0.00000000   -0.02899851   -0.00584416
     atom   18 type  2   force =     0.00000000    0.06178077   -0.00582214
     atom   19 type  1   force =    -0.05656338    0.55270224   -0.00247402
     atom   20 type  1   force =     0.05656338    0.55270224   -0.00247402
     atom   21 type  2   force =     0.57791066   -0.02721835   -0.00610372
     atom   22 type  2   force =    -0.57791066   -0.02721835   -0.00610372
     atom   23 type  1   force =    -0.16001604   -0.52410665   -0.00247252
     atom   24 type  1   force =     0.16001604   -0.52410665   -0.00247252
     atom   25 type  1   force =    -0.00000000    0.03054255  -27.22630907
     atom   26 type  1   force =     0.00000000    0.01424348  -26.84781881
     atom   27 type  1   force =    -0.00000000   -0.02021911  -39.18617038
     atom   28 type  1   force =     0.00000000   -0.01751087  -37.78891207
     atom   29 type  2   force =     2.83779754   -0.07891986 -173.33706053
     atom   30 type  2   force =    -2.83779754   -0.07891986 -173.33706053
     atom   31 type  1   force =     0.26228617   -0.60038366  -62.89504584
     atom   32 type  1   force =    -0.26228617   -0.60038366  -62.89504584
     atom   33 type  2   force =     0.00000000    0.01319542 -174.43045485
     atom   34 type  2   force =     0.00000000    0.15087894 -173.25164666
     atom   35 type  1   force =     0.31907283    0.56615581  -62.59086823
     atom   36 type  1   force =    -0.31907283    0.56615581  -62.59086823
     atom   37 type  1   force =    -0.00000000    0.39285706  -92.04463908
     atom   38 type  1   force =    -0.00000000   -0.00428163  -93.63014210
     atom   39 type  1   force =     0.00000000   -0.08364432 -100.67553502
     atom   40 type  1   force =     0.00000000    0.03366233 -100.91561432
     atom   41 type  3   force =     0.00000000   -1.00429297   18.26801863
     atom   42 type  3   force =     0.00000000   -1.00429297  -18.26801863
     The core correction contribution to forces
     atom    1 type  1   force =     0.00000000    0.00021428   -0.01082498
     atom    2 type  1   force =     0.00000000    0.00000427   -0.01113203
     atom    3 type  1   force =     0.00000000   -0.00749282    0.00679458
     atom    4 type  1   force =    -0.00000000   -0.00027568   -0.01095341
     atom    5 type  2   force =     0.00000000    0.00000000    0.00000000
     atom    6 type  2   force =     0.00000000    0.00000000    0.00000000
     atom    7 type  1   force =     0.00001163   -0.00086942    0.00119786
     atom    8 type  1   force =    -0.00001163   -0.00086942    0.00119786
     atom    9 type  2   force =     0.00000000    0.00000000    0.00000000
     atom   10 type  2   force =     0.00000000    0.00000000    0.00000000
     atom   11 type  1   force =    -0.00006698    0.00097005    0.00127817
     atom   12 type  1   force =     0.00006698    0.00097005    0.00127817
     atom   13 type  1   force =    -0.00000000    0.00000245   -0.00069571
     atom   14 type  1   force =     0.00000000   -0.00026143    0.00045658
     atom   15 type  1   force =     0.00000000    0.00002233   -0.00275439
     atom   16 type  1   force =     0.00000000    0.00000095   -0.00218936
     atom   17 type  2   force =     0.00000000    0.00000000    0.00000000
     atom   18 type  2   force =     0.00000000    0.00000000    0.00000000
     atom   19 type  1   force =     0.00012565    0.00067496   -0.00000216
     atom   20 type  1   force =    -0.00012565    0.00067496   -0.00000216
     atom   21 type  2   force =     0.00000000    0.00000000    0.00000000
     atom   22 type  2   force =     0.00000000    0.00000000    0.00000000
     atom   23 type  1   force =     0.00021259   -0.00070676   -0.00000216
     atom   24 type  1   force =    -0.00021259   -0.00070676   -0.00000216
     atom   25 type  1   force =     0.00000000    0.00002233    0.00275236
     atom   26 type  1   force =    -0.00000000    0.00000096    0.00218723
     atom   27 type  1   force =    -0.00000000    0.00000247    0.00069357
     atom   28 type  1   force =     0.00000000   -0.00026145   -0.00045882
     atom   29 type  2   force =     0.00000000    0.00000000    0.00000000
     atom   30 type  2   force =     0.00000000    0.00000000    0.00000000
     atom   31 type  1   force =     0.00001168   -0.00086943   -0.00119949
     atom   32 type  1   force =    -0.00001168   -0.00086943   -0.00119949
     atom   33 type  2   force =     0.00000000    0.00000000    0.00000000
     atom   34 type  2   force =     0.00000000    0.00000000    0.00000000
     atom   35 type  1   force =    -0.00006692    0.00097008   -0.00127979
     atom   36 type  1   force =     0.00006692    0.00097008   -0.00127979
     atom   37 type  1   force =     0.00000000   -0.00749391   -0.00679979
     atom   38 type  1   force =     0.00000000   -0.00027583    0.01094911
     atom   39 type  1   force =    -0.00000000    0.00021427    0.01082342
     atom   40 type  1   force =    -0.00000000    0.00000425    0.01113023
     atom   41 type  3   force =     0.00000000    0.00000000    0.00000000
     atom   42 type  3   force =     0.00000000    0.00000000    0.00000000
     The Hubbard contrib.    to forces
     atom    1 type  1   force =     0.00000000    0.00000000    0.00000000
     atom    2 type  1   force =     0.00000000    0.00000000    0.00000000
     atom    3 type  1   force =     0.00000000    0.00000000    0.00000000
     atom    4 type  1   force =     0.00000000    0.00000000    0.00000000
     atom    5 type  2   force =     0.00000000    0.00000000    0.00000000
     atom    6 type  2   force =     0.00000000    0.00000000    0.00000000
     atom    7 type  1   force =     0.00000000    0.00000000    0.00000000
     atom    8 type  1   force =     0.00000000    0.00000000    0.00000000
     atom    9 type  2   force =     0.00000000    0.00000000    0.00000000
     atom   10 type  2   force =     0.00000000    0.00000000    0.00000000
     atom   11 type  1   force =     0.00000000    0.00000000    0.00000000
     atom   12 type  1   force =     0.00000000    0.00000000    0.00000000
     atom   13 type  1   force =     0.00000000    0.00000000    0.00000000
     atom   14 type  1   force =     0.00000000    0.00000000    0.00000000
     atom   15 type  1   force =     0.00000000    0.00000000    0.00000000
     atom   16 type  1   force =     0.00000000    0.00000000    0.00000000
     atom   17 type  2   force =     0.00000000    0.00000000    0.00000000
     atom   18 type  2   force =     0.00000000    0.00000000    0.00000000
     atom   19 type  1   force =     0.00000000    0.00000000    0.00000000
     atom   20 type  1   force =     0.00000000    0.00000000    0.00000000
     atom   21 type  2   force =     0.00000000    0.00000000    0.00000000
     atom   22 type  2   force =     0.00000000    0.00000000    0.00000000
     atom   23 type  1   force =     0.00000000    0.00000000    0.00000000
     atom   24 type  1   force =     0.00000000    0.00000000    0.00000000
     atom   25 type  1   force =     0.00000000    0.00000000    0.00000000
     atom   26 type  1   force =     0.00000000    0.00000000    0.00000000
     atom   27 type  1   force =     0.00000000    0.00000000    0.00000000
     atom   28 type  1   force =     0.00000000    0.00000000    0.00000000
     atom   29 type  2   force =     0.00000000    0.00000000    0.00000000
     atom   30 type  2   force =     0.00000000    0.00000000    0.00000000
     atom   31 type  1   force =     0.00000000    0.00000000    0.00000000
     atom   32 type  1   force =     0.00000000    0.00000000    0.00000000
     atom   33 type  2   force =     0.00000000    0.00000000    0.00000000
     atom   34 type  2   force =     0.00000000    0.00000000    0.00000000
     atom   35 type  1   force =     0.00000000    0.00000000    0.00000000
     atom   36 type  1   force =     0.00000000    0.00000000    0.00000000
     atom   37 type  1   force =     0.00000000    0.00000000    0.00000000
     atom   38 type  1   force =     0.00000000    0.00000000    0.00000000
     atom   39 type  1   force =     0.00000000    0.00000000    0.00000000
     atom   40 type  1   force =     0.00000000    0.00000000    0.00000000
     atom   41 type  3   force =     0.00000000    0.00000000    0.00000000
     atom   42 type  3   force =     0.00000000    0.00000000    0.00000000
     The SCF correction term to forces
     atom    1 type  1   force =     0.00000000   -0.00001039    0.00001299
     atom    2 type  1   force =    -0.00000000   -0.00000706    0.00001225
     atom    3 type  1   force =     0.00000000    0.00000954    0.00001981
     atom    4 type  1   force =    -0.00000000    0.00000709    0.00001079
     atom    5 type  2   force =    -0.00002115    0.00001400    0.00004497
     atom    6 type  2   force =     0.00002115    0.00001400    0.00004497
     atom    7 type  1   force =    -0.00000434    0.00000513    0.00001390
     atom    8 type  1   force =     0.00000434    0.00000513    0.00001390
     atom    9 type  2   force =     0.00000000   -0.00001637    0.00004430
     atom   10 type  2   force =    -0.00000000   -0.00001349    0.00004958
     atom   11 type  1   force =    -0.00000317   -0.00000921    0.00001951
     atom   12 type  1   force =     0.00000317   -0.00000921    0.00001951
     atom   13 type  1   force =     0.00000000    0.00000310    0.00002140
     atom   14 type  1   force =    -0.00000000    0.00000263    0.00003062
     atom   15 type  1   force =     0.00000000   -0.00000219    0.00002384
     atom   16 type  1   force =     0.00000000   -0.00000175    0.00002305
     atom   17 type  2   force =    -0.00000000    0.00000322    0.00001840
     atom   18 type  2   force =     0.00000000    0.00000296    0.00001855
     atom   19 type  1   force =     0.00000187    0.00000554    0.00000676
     atom   20 type  1   force =    -0.00000187    0.00000554    0.00000676
     atom   21 type  2   force =     0.00000044   -0.00000291    0.00001820
     atom   22 type  2   force =    -0.00000044   -0.00000291    0.00001820
     atom   23 type  1   force =     0.00000197   -0.00000475    0.00000676
     atom   24 type  1   force =    -0.00000197   -0.00000475    0.00000676
     atom   25 type  1   force =     0.00000000   -0.00000220   -0.00001437
     atom   26 type  1   force =     0.00000000   -0.00000175   -0.00001294
     atom   27 type  1   force =    -0.00000000    0.00000312   -0.00001597
     atom   28 type  1   force =     0.00000000    0.00000264   -0.00002523
     atom   29 type  2   force =    -0.00002097    0.00001405   -0.00005426
     atom   30 type  2   force =     0.00002097    0.00001405   -0.00005426
     atom   31 type  1   force =    -0.00000420    0.00000457   -0.00001697
     atom   32 type  1   force =     0.00000420    0.00000457   -0.00001697
     atom   33 type  2   force =     0.00000000   -0.00001643   -0.00005548
     atom   34 type  2   force =    -0.00000000   -0.00001354   -0.00006047
     atom   35 type  1   force =    -0.00000302   -0.00000867   -0.00002254
     atom   36 type  1   force =     0.00000302   -0.00000867   -0.00002254
     atom   37 type  1   force =     0.00000000    0.00000953   -0.00002566
     atom   38 type  1   force =    -0.00000000    0.00000711   -0.00001677
     atom   39 type  1   force =     0.00000000   -0.00001039   -0.00001730
     atom   40 type  1   force =    -0.00000000   -0.00000707   -0.00001675
     atom   41 type  3   force =     0.00000000    0.00000117    0.00000199
     atom   42 type  3   force =     0.00000000    0.00000118   -0.00000254

     Total force =     0.231850     Total SCF correction =     0.000190

     BFGS Geometry Optimization
     Energy error            =      0.0E+00 Ry
     Gradient error          =      7.1E-02 Ry/Bohr

     number of scf cycles    =   1
     number of bfgs steps    =   0

     energy             new  =   -3430.0239242644 Ry

     new trust radius        =       0.0706925631 bohr
     new conv_thr            =       0.0000000010 Ry


ATOMIC_POSITIONS (crystal)
O             0.0000000000        0.5050332697        0.2738853921
O             0.5000000000        0.5032630502        0.2742576124
O             0.0000000000       -0.0008001350        0.3017817283
O             0.5000000000        0.0014171017        0.3089974799
Ru            0.2562943674        0.0033717773        0.3570863227
Ru            0.7437056326        0.0033717773        0.3570863227
O             0.2496461482        0.3154275309        0.3584560312
O             0.7503538518        0.3154275309        0.3584560312
Ru            0.0000000000        0.5037104777        0.3518747169
Ru            0.5000000000        0.5033792839        0.3521735242
O             0.2505031025        0.6912625452        0.3588939049
O             0.7494968975        0.6912625452        0.3588939049
O             0.0000000000        0.0027324538        0.4126372566
O             0.5000000000        0.0027818696        0.4122707039
O             0.0000000000        0.5027680031        0.4425497184
O             0.5000000000        0.5022994763        0.4459791049
Ru            0.0000000000        0.0021787699        0.5000010000
Ru            0.5000000000        0.0030344283        0.5000010000
O             0.2491640773        0.1902523990        0.5000010000
O             0.7508359227        0.1902523990        0.5000010000
Ru            0.2482304907        0.5025789288        0.5000010000
Ru            0.7517695093        0.5025789288        0.5000010000
O             0.2493854913        0.8147696199        0.5000010000
O             0.7506145087        0.8147696199        0.5000010000
O             0.0000000000        0.5027680031        0.5574512816
O             0.5000000000        0.5022994763        0.5540218951
O             0.0000000000        0.0027324538        0.5873637434
O             0.5000000000        0.0027818696        0.5877302961
Ru            0.2562943674        0.0033717773        0.6429146773
Ru            0.7437056326        0.0033717773        0.6429146773
O             0.2496461482        0.3154275309        0.6415449688
O             0.7503538518        0.3154275309        0.6415449688
Ru            0.0000000000        0.5037104777        0.6481262831
Ru            0.5000000000        0.5033792839        0.6478274758
O             0.2505031025        0.6912625452        0.6411070951
O             0.7494968975        0.6912625452        0.6411070951
O             0.0000000000       -0.0008001350        0.6982202717
O             0.5000000000        0.0014171017        0.6910045201
O             0.0000000000        0.5050332697        0.7261156079
O             0.5000000000        0.5032630502        0.7257433876
H             0.0000000000        0.0573008955        0.2596244541
H             0.0000000000        0.0573008955        0.7403755459



     Writing config-only to output data dir /storage/home/mgm6007/ixd4/Maria/StrainJin_Files/RuO2-110-0-2/RuO2-110-0-2.save/
     NEW-OLD atomic charge density approx. for the potential

     Check: negative core charge=   -0.000001

     negative rho (up, down):  1.540E-04 0.000E+00

     add environment contribution to local potential
     Polarization accuracy = 5.7E-12, # of iterations =  42

     total cpu time spent up to now is     8862.3 secs

     per-process dynamical memory:   202.3 Mb

     Self-consistent Calculation

     iteration #  1     ecut=    50.00 Ry     beta= 0.70
     Davidson diagonalization with overlap
     ethr =  1.00E-06,  avg # of iterations = 12.0

     negative rho (up, down):  7.601E-04 0.000E+00

     add environment contribution to local potential
     Polarization accuracy = 6.3E-12, # of iterations =  42

     total cpu time spent up to now is     9132.9 secs

     total energy              =   -3430.04595410 Ry
     estimated scf accuracy    <       0.04639511 Ry
     electrostatic embedding   =      -0.05344050 Ry
     cavitation energy         =       0.02108923 Ry
     PV energy                 =      -0.07868699 Ry
     correction to one-el term =     192.63904761 Ry

     iteration #  2     ecut=    50.00 Ry     beta= 0.70
     Davidson diagonalization with overlap
     ethr =  1.28E-05,  avg # of iterations =  2.0

     negative rho (up, down):  7.169E-04 0.000E+00

     add environment contribution to local potential
     Polarization accuracy = 3.0E-12, # of iterations =  43

     total cpu time spent up to now is     9394.9 secs

     total energy              =   -3430.04781650 Ry
     estimated scf accuracy    <       0.09373469 Ry
     electrostatic embedding   =      -0.05446091 Ry
     cavitation energy         =       0.02109128 Ry
     PV energy                 =      -0.07862158 Ry
     correction to one-el term =     192.92878035 Ry

     iteration #  3     ecut=    50.00 Ry     beta= 0.70
     Davidson diagonalization with overlap
     ethr =  1.28E-05,  avg # of iterations =  1.0

     negative rho (up, down):  9.899E-04 0.000E+00

     add environment contribution to local potential
     Polarization accuracy = 4.4E-12, # of iterations =  44

     total cpu time spent up to now is     9615.6 secs

     total energy              =   -3430.05215328 Ry
     estimated scf accuracy    <       0.00276629 Ry
     electrostatic embedding   =      -0.05461787 Ry
     cavitation energy         =       0.02107449 Ry
     PV energy                 =      -0.07864885 Ry
     correction to one-el term =     192.88544256 Ry

     iteration #  4     ecut=    50.00 Ry     beta= 0.70
     Davidson diagonalization with overlap
     ethr =  7.64E-07,  avg # of iterations =  1.0

     negative rho (up, down):  1.171E-03 0.000E+00

     add environment contribution to local potential
     Polarization accuracy = 2.1E-12, # of iterations =  43

     total cpu time spent up to now is     9805.3 secs

     total energy              =   -3430.05227669 Ry
     estimated scf accuracy    <       0.00255302 Ry
     electrostatic embedding   =      -0.05523600 Ry
     cavitation energy         =       0.02106397 Ry
     PV energy                 =      -0.07865210 Ry
     correction to one-el term =     192.94755186 Ry

     iteration #  5     ecut=    50.00 Ry     beta= 0.70
     Davidson diagonalization with overlap
     ethr =  7.05E-07,  avg # of iterations =  1.0

     negative rho (up, down):  1.235E-03 0.000E+00

     add environment contribution to local potential
     Polarization accuracy = 6.3E-12, # of iterations =  43

     total cpu time spent up to now is    10070.3 secs

     total energy              =   -3430.05231536 Ry
     estimated scf accuracy    <       0.00034937 Ry
     electrostatic embedding   =      -0.05572523 Ry
     cavitation energy         =       0.02105831 Ry
     PV energy                 =      -0.07865192 Ry
     correction to one-el term =     192.99296041 Ry

     iteration #  6     ecut=    50.00 Ry     beta= 0.70
     Davidson diagonalization with overlap
     ethr =  9.65E-08,  avg # of iterations =  2.0

     negative rho (up, down):  1.177E-03 0.000E+00

     add environment contribution to local potential
     Polarization accuracy = 6.4E-12, # of iterations =  43

     total cpu time spent up to now is    10332.4 secs

     total energy              =   -3430.05234970 Ry
     estimated scf accuracy    <       0.00018718 Ry
     electrostatic embedding   =      -0.05630515 Ry
     cavitation energy         =       0.02104871 Ry
     PV energy                 =      -0.07866209 Ry
     correction to one-el term =     193.00576031 Ry

     iteration #  7     ecut=    50.00 Ry     beta= 0.70
     Davidson diagonalization with overlap
     ethr =  5.17E-08,  avg # of iterations =  1.0

     negative rho (up, down):  1.082E-03 0.000E+00

     add environment contribution to local potential
     Polarization accuracy = 6.3E-12, # of iterations =  43

     total cpu time spent up to now is    10568.3 secs

     total energy              =   -3430.05235454 Ry
     estimated scf accuracy    <       0.00006595 Ry
     electrostatic embedding   =      -0.05659211 Ry
     cavitation energy         =       0.02104585 Ry
     PV energy                 =      -0.07866717 Ry
     correction to one-el term =     192.99724064 Ry

     iteration #  8     ecut=    50.00 Ry     beta= 0.70
     Davidson diagonalization with overlap
     ethr =  1.82E-08,  avg # of iterations =  2.0

     negative rho (up, down):  8.646E-04 0.000E+00

     add environment contribution to local potential
     Polarization accuracy = 6.1E-12, # of iterations =  43

     total cpu time spent up to now is    10793.6 secs

     total energy              =   -3430.05235686 Ry
     estimated scf accuracy    <       0.00002724 Ry
     electrostatic embedding   =      -0.05687320 Ry
     cavitation energy         =       0.02104334 Ry
     PV energy                 =      -0.07867152 Ry
     correction to one-el term =     192.98263435 Ry

     iteration #  9     ecut=    50.00 Ry     beta= 0.70
     Davidson diagonalization with overlap
     ethr =  7.53E-09,  avg # of iterations =  2.0

     negative rho (up, down):  6.220E-04 0.000E+00

     add environment contribution to local potential
     Polarization accuracy = 3.8E-12, # of iterations =  43

     total cpu time spent up to now is    11002.0 secs

     total energy              =   -3430.05235871 Ry
     estimated scf accuracy    <       0.00000953 Ry
     electrostatic embedding   =      -0.05730744 Ry
     cavitation energy         =       0.02104045 Ry
     PV energy                 =      -0.07867864 Ry
     correction to one-el term =     192.94731055 Ry

     iteration # 10     ecut=    50.00 Ry     beta= 0.70
     Davidson diagonalization with overlap
     ethr =  2.63E-09,  avg # of iterations =  3.0

     negative rho (up, down):  4.558E-04 0.000E+00

     add environment contribution to local potential
     Polarization accuracy = 5.4E-12, # of iterations =  44

     total cpu time spent up to now is    11288.1 secs

     total energy              =   -3430.05235931 Ry
     estimated scf accuracy    <       0.00000277 Ry
     electrostatic embedding   =      -0.05767381 Ry
     cavitation energy         =       0.02103920 Ry
     PV energy                 =      -0.07868257 Ry
     correction to one-el term =     192.91086796 Ry

     iteration # 11     ecut=    50.00 Ry     beta= 0.70
     Davidson diagonalization with overlap
     ethr =  7.65E-10,  avg # of iterations =  3.0

     negative rho (up, down):  3.249E-04 0.000E+00

     add environment contribution to local potential
     Polarization accuracy = 5.6E-12, # of iterations =  43

     total cpu time spent up to now is    11513.8 secs

     total energy              =   -3430.05235907 Ry
     estimated scf accuracy    <       0.00000159 Ry
     electrostatic embedding   =      -0.05791681 Ry
     cavitation energy         =       0.02103863 Ry
     PV energy                 =      -0.07868450 Ry
     correction to one-el term =     192.88447292 Ry

     iteration # 12     ecut=    50.00 Ry     beta= 0.70
     Davidson diagonalization with overlap
     ethr =  4.40E-10,  avg # of iterations =  3.0

     negative rho (up, down):  2.153E-04 0.000E+00

     add environment contribution to local potential
     Polarization accuracy = 5.5E-12, # of iterations =  43

     total cpu time spent up to now is    11802.2 secs

     total energy              =   -3430.05235842 Ry
     estimated scf accuracy    <       0.00000037 Ry
     electrostatic embedding   =      -0.05808304 Ry
     cavitation energy         =       0.02103868 Ry
     PV energy                 =      -0.07868503 Ry
     correction to one-el term =     192.86219268 Ry

     iteration # 13     ecut=    50.00 Ry     beta= 0.70
     Davidson diagonalization with overlap
     ethr =  1.03E-10,  avg # of iterations =  5.0

     negative rho (up, down):  1.776E-04 0.000E+00

     add environment contribution to local potential
     Polarization accuracy = 5.3E-12, # of iterations =  43

     total cpu time spent up to now is    12036.1 secs

     total energy              =   -3430.05235761 Ry
     estimated scf accuracy    <       0.00000011 Ry
     electrostatic embedding   =      -0.05821884 Ry
     cavitation energy         =       0.02103902 Ry
     PV energy                 =      -0.07868472 Ry
     correction to one-el term =     192.84073353 Ry

     iteration # 14     ecut=    50.00 Ry     beta= 0.70
     Davidson diagonalization with overlap
     ethr =  3.13E-11,  avg # of iterations =  3.0

     negative rho (up, down):  1.641E-04 0.000E+00

     add environment contribution to local potential
     Polarization accuracy = 5.0E-12, # of iterations =  43

     total cpu time spent up to now is    12227.5 secs

     total energy              =   -3430.05235719 Ry
     estimated scf accuracy    <       0.00000004 Ry
     electrostatic embedding   =      -0.05827324 Ry
     cavitation energy         =       0.02103918 Ry
     PV energy                 =      -0.07868443 Ry
     correction to one-el term =     192.83174630 Ry

     iteration # 15     ecut=    50.00 Ry     beta= 0.70
     Davidson diagonalization with overlap
     ethr =  1.15E-11,  avg # of iterations =  5.0

     negative rho (up, down):  1.522E-04 0.000E+00

     add environment contribution to local potential
     Polarization accuracy = 9.6E-12, # of iterations =  42

     total cpu time spent up to now is    12452.6 secs

     total energy              =   -3430.05235697 Ry
     estimated scf accuracy    <       0.00000003 Ry
     electrostatic embedding   =      -0.05830050 Ry
     cavitation energy         =       0.02103919 Ry
     PV energy                 =      -0.07868436 Ry
     correction to one-el term =     192.82782927 Ry

     iteration # 16     ecut=    50.00 Ry     beta= 0.70
     Davidson diagonalization with overlap
     ethr =  7.57E-12,  avg # of iterations =  3.0

     negative rho (up, down):  1.521E-04 0.000E+00

     add environment contribution to local potential
     Polarization accuracy = 2.5E-12, # of iterations =  43

     total cpu time spent up to now is    12633.2 secs

     total energy              =   -3430.05235672 Ry
     estimated scf accuracy    <          6.4E-09 Ry
     electrostatic embedding   =      -0.05833153 Ry
     cavitation energy         =       0.02103916 Ry
     PV energy                 =      -0.07868431 Ry
     correction to one-el term =     192.82385225 Ry

     iteration # 17     ecut=    50.00 Ry     beta= 0.70
     Davidson diagonalization with overlap
     ethr =  1.77E-12,  avg # of iterations =  3.0

     negative rho (up, down):  1.510E-04 0.000E+00

     add environment contribution to local potential
     Polarization accuracy = 2.2E-12, # of iterations =  43

     total cpu time spent up to now is    12881.9 secs

     total energy              =   -3430.05235667 Ry
     estimated scf accuracy    <          3.5E-09 Ry
     electrostatic embedding   =      -0.05834231 Ry
     cavitation energy         =       0.02103913 Ry
     PV energy                 =      -0.07868421 Ry
     correction to one-el term =     192.82288769 Ry

     iteration # 18     ecut=    50.00 Ry     beta= 0.70
     Davidson diagonalization with overlap
     ethr =  9.58E-13,  avg # of iterations =  3.0

     negative rho (up, down):  1.540E-04 0.000E+00

     add environment contribution to local potential
     Polarization accuracy = 2.4E-12, # of iterations =  43

     total cpu time spent up to now is    13040.1 secs

     total energy              =   -3430.05235661 Ry
     estimated scf accuracy    <          2.6E-09 Ry
     electrostatic embedding   =      -0.05835064 Ry
     cavitation energy         =       0.02103910 Ry
     PV energy                 =      -0.07868421 Ry
     correction to one-el term =     192.82211926 Ry

     iteration # 19     ecut=    50.00 Ry     beta= 0.70
     Davidson diagonalization with overlap
     ethr =  7.11E-13,  avg # of iterations =  2.0

     negative rho (up, down):  1.569E-04 0.000E+00

     add environment contribution to local potential
     Polarization accuracy = 8.0E-12, # of iterations =  42

     total cpu time spent up to now is    13253.5 secs

     total energy              =   -3430.05235661 Ry
     estimated scf accuracy    <          1.7E-09 Ry
     electrostatic embedding   =      -0.05835245 Ry
     cavitation energy         =       0.02103907 Ry
     PV energy                 =      -0.07868417 Ry
     correction to one-el term =     192.82234653 Ry

     iteration # 20     ecut=    50.00 Ry     beta= 0.70
     Davidson diagonalization with overlap
     ethr =  4.67E-13,  avg # of iterations =  4.0

     negative rho (up, down):  1.596E-04 0.000E+00

     the potential shift due to the Gaussian-smeared nuclei is    -1.3280 ev

     total cpu time spent up to now is    13474.8 secs

     End of self-consistent calculation

          k = 0.2500 0.2752 0.0000 ( 34780 PWs)   bands (ev):

   -78.9106 -78.8971 -78.8142 -78.8009 -78.3058 -78.3015 -78.2929 -78.2886
   -77.9992 -77.9143 -77.9108 -77.8884 -49.3986 -49.3853 -49.3191 -49.3058
   -48.8890 -48.8756 -48.7648 -48.7514 -48.5973 -48.5843 -48.5811 -48.5681
   -48.4878 -48.4744 -48.3848 -48.3714 -48.3005 -48.2876 -48.2814 -48.2782
   -48.2225 -48.2116 -48.2003 -48.1329 -48.1180 -48.1112 -48.0988 -48.0834
   -48.0350 -47.9114 -47.8241 -47.8028 -47.7396 -47.7297 -47.7180 -47.7022
   -24.6278 -24.5225 -24.3602 -24.0786 -24.0374 -23.9315 -23.8861 -23.8307
   -23.5873 -23.3982 -23.3828 -23.3565 -23.3492 -23.2694 -23.1769 -23.1316
   -23.0715 -23.0008 -22.9662 -22.9479 -22.8071 -22.7740 -22.5498 -22.4249
   -22.4170 -22.2934 -22.2550 -22.1581 -12.8282 -12.8150 -12.6395 -12.4688
   -12.2562 -12.2130 -12.0973 -12.0268 -11.8822 -11.8728 -11.8369 -11.8206
   -11.7292 -11.6410 -11.5643 -11.4972 -11.4613 -11.2916 -11.2572 -11.2434
   -11.1770 -11.1184 -10.9006 -10.8102 -10.7084 -10.6670 -10.5671 -10.3894
   -10.2578 -10.1807 -10.1283 -10.0092 -10.0020  -9.9207  -9.8829  -9.7654
    -9.7204  -9.7127  -9.6056  -9.5834  -9.5222  -9.4615  -9.2999  -9.2937
    -9.1009  -8.9304  -8.8887  -8.8415  -8.7902  -8.7546  -8.6794  -8.6545
    -8.6312  -8.6264  -8.5815  -8.5144  -8.4563  -8.4297  -8.3895  -8.2490
[...]
     atom   24 type  1   force =     0.00001156    0.00028335   -0.00000208
     atom   25 type  1   force =     0.00000000   -0.00000425    0.00206867
     atom   26 type  1   force =    -0.00000000   -0.00000179    0.00228522
     atom   27 type  1   force =     0.00000000    0.00000380    0.00144390
     atom   28 type  1   force =    -0.00000000    0.00000512   -0.00076782
     atom   29 type  2   force =     0.00000000    0.00000000    0.00000000
     atom   30 type  2   force =     0.00000000    0.00000000    0.00000000
     atom   31 type  1   force =    -0.00030079   -0.00015442   -0.00188557
     atom   32 type  1   force =     0.00030079   -0.00015442   -0.00188557
     atom   33 type  2   force =     0.00000000    0.00000000    0.00000000
     atom   34 type  2   force =     0.00000000    0.00000000    0.00000000
     atom   35 type  1   force =    -0.00030852    0.00014960   -0.00192659
     atom   36 type  1   force =     0.00030852    0.00014960   -0.00192659
     atom   37 type  1   force =     0.00000000    0.00004807   -0.00912775
     atom   38 type  1   force =     0.00000000   -0.00001158    0.01156025
     atom   39 type  1   force =    -0.00000000    0.00002285    0.01102024
     atom   40 type  1   force =    -0.00000000   -0.00000583    0.01107776
     atom   41 type  3   force =     0.00000000    0.00000000    0.00000000
     atom   42 type  3   force =     0.00000000    0.00000000    0.00000000
     The Hubbard contrib.    to forces
     atom    1 type  1   force =     0.00000000    0.00000000    0.00000000
     atom    2 type  1   force =     0.00000000    0.00000000    0.00000000
     atom    3 type  1   force =     0.00000000    0.00000000    0.00000000
     atom    4 type  1   force =     0.00000000    0.00000000    0.00000000
     atom    5 type  2   force =     0.00000000    0.00000000    0.00000000
     atom    6 type  2   force =     0.00000000    0.00000000    0.00000000
     atom    7 type  1   force =     0.00000000    0.00000000    0.00000000
     atom    8 type  1   force =     0.00000000    0.00000000    0.00000000
     atom    9 type  2   force =     0.00000000    0.00000000    0.00000000
     atom   10 type  2   force =     0.00000000    0.00000000    0.00000000
     atom   11 type  1   force =     0.00000000    0.00000000    0.00000000
     atom   12 type  1   force =     0.00000000    0.00000000    0.00000000
     atom   13 type  1   force =     0.00000000    0.00000000    0.00000000
     atom   14 type  1   force =     0.00000000    0.00000000    0.00000000
     atom   15 type  1   force =     0.00000000    0.00000000    0.00000000
     atom   16 type  1   force =     0.00000000    0.00000000    0.00000000
     atom   17 type  2   force =     0.00000000    0.00000000    0.00000000
     atom   18 type  2   force =     0.00000000    0.00000000    0.00000000
     atom   19 type  1   force =     0.00000000    0.00000000    0.00000000
     atom   20 type  1   force =     0.00000000    0.00000000    0.00000000
     atom   21 type  2   force =     0.00000000    0.00000000    0.00000000
     atom   22 type  2   force =     0.00000000    0.00000000    0.00000000
     atom   23 type  1   force =     0.00000000    0.00000000    0.00000000
     atom   24 type  1   force =     0.00000000    0.00000000    0.00000000
     atom   25 type  1   force =     0.00000000    0.00000000    0.00000000
     atom   26 type  1   force =     0.00000000    0.00000000    0.00000000
     atom   27 type  1   force =     0.00000000    0.00000000    0.00000000
     atom   28 type  1   force =     0.00000000    0.00000000    0.00000000
     atom   29 type  2   force =     0.00000000    0.00000000    0.00000000
     atom   30 type  2   force =     0.00000000    0.00000000    0.00000000
     atom   31 type  1   force =     0.00000000    0.00000000    0.00000000
     atom   32 type  1   force =     0.00000000    0.00000000    0.00000000
     atom   33 type  2   force =     0.00000000    0.00000000    0.00000000
     atom   34 type  2   force =     0.00000000    0.00000000    0.00000000
     atom   35 type  1   force =     0.00000000    0.00000000    0.00000000
     atom   36 type  1   force =     0.00000000    0.00000000    0.00000000
     atom   37 type  1   force =     0.00000000    0.00000000    0.00000000
     atom   38 type  1   force =     0.00000000    0.00000000    0.00000000
     atom   39 type  1   force =     0.00000000    0.00000000    0.00000000
     atom   40 type  1   force =     0.00000000    0.00000000    0.00000000
     atom   41 type  3   force =     0.00000000    0.00000000    0.00000000
     atom   42 type  3   force =     0.00000000    0.00000000    0.00000000
     The SCF correction term to forces
     atom    1 type  1   force =    -0.00000000    0.00000037   -0.00000153
     atom    2 type  1   force =     0.00000000    0.00000114   -0.00000151
     atom    3 type  1   force =    -0.00000000    0.00000047   -0.00000147
     atom    4 type  1   force =     0.00000000   -0.00000107   -0.00000158
     atom    5 type  2   force =     0.00000024   -0.00000152   -0.00000339
     atom    6 type  2   force =    -0.00000024   -0.00000152   -0.00000339
     atom    7 type  1   force =    -0.00000004    0.00000064   -0.00000137
     atom    8 type  1   force =     0.00000004    0.00000064   -0.00000137
     atom    9 type  2   force =    -0.00000000    0.00000107   -0.00000530
     atom   10 type  2   force =     0.00000000    0.00000196   -0.00000520
     atom   11 type  1   force =     0.00000028   -0.00000017   -0.00000177
     atom   12 type  1   force =    -0.00000028   -0.00000017   -0.00000177
     atom   13 type  1   force =     0.00000000   -0.00000032   -0.00000088
     atom   14 type  1   force =    -0.00000000   -0.00000039   -0.00000115
     atom   15 type  1   force =    -0.00000000    0.00000026   -0.00000080
     atom   16 type  1   force =     0.00000000    0.00000030   -0.00000088
     atom   17 type  2   force =     0.00000000   -0.00000040   -0.00000001
     atom   18 type  2   force =     0.00000000   -0.00000062   -0.00000001
     atom   19 type  1   force =    -0.00000014   -0.00000008   -0.00000000
     atom   20 type  1   force =     0.00000014   -0.00000008   -0.00000000
     atom   21 type  2   force =     0.00000047    0.00000073   -0.00000000
     atom   22 type  2   force =    -0.00000047    0.00000073   -0.00000000
     atom   23 type  1   force =    -0.00000009   -0.00000027   -0.00000000
     atom   24 type  1   force =     0.00000009   -0.00000027   -0.00000000
     atom   25 type  1   force =     0.00000000    0.00000026    0.00000080
     atom   26 type  1   force =    -0.00000000    0.00000030    0.00000088
     atom   27 type  1   force =     0.00000000   -0.00000032    0.00000087
     atom   28 type  1   force =    -0.00000000   -0.00000039    0.00000115
     atom   29 type  2   force =     0.00000024   -0.00000152    0.00000339
     atom   30 type  2   force =    -0.00000024   -0.00000152    0.00000339
     atom   31 type  1   force =    -0.00000004    0.00000064    0.00000137
     atom   32 type  1   force =     0.00000004    0.00000064    0.00000137
     atom   33 type  2   force =    -0.00000000    0.00000106    0.00000529
     atom   34 type  2   force =     0.00000000    0.00000196    0.00000519
     atom   35 type  1   force =     0.00000028   -0.00000017    0.00000176
     atom   36 type  1   force =    -0.00000028   -0.00000017    0.00000176
     atom   37 type  1   force =    -0.00000000    0.00000047    0.00000147
     atom   38 type  1   force =     0.00000000   -0.00000107    0.00000158
     atom   39 type  1   force =    -0.00000000    0.00000037    0.00000153
     atom   40 type  1   force =     0.00000000    0.00000114    0.00000151
     atom   41 type  3   force =    -0.00000000   -0.00000002   -0.00000026
     atom   42 type  3   force =    -0.00000000   -0.00000002    0.00000026

     Total force =     0.000534     Total SCF correction =     0.000015
     Energy error            =      3.5E-07 Ry
     Gradient error          =      1.4E-04 Ry/Bohr

     number of scf cycles    =  48
     number of bfgs steps    =  47

     energy             old  =   -3430.0602062830 Ry
     energy             new  =   -3430.0602066357 Ry

     CASE: energy            _new < energy            _old

     new trust radius        =       0.0032862664 bohr
     new conv_thr            =            1.0E-11 Ry


ATOMIC_POSITIONS (crystal)
O             0.0000000000        0.5059814529        0.2758798037
O             0.5000000000        0.5053380084        0.2752765907
O             0.0000000000        0.0054171637        0.3029640942
O             0.5000000000        0.0052864090        0.3071618471
Ru            0.2580618047        0.0054016652        0.3566531073
Ru            0.7419381953        0.0054016652        0.3566531073
O             0.2498487837        0.3180139161        0.3606480474
O             0.7501512163        0.3180139161        0.3606480474
Ru            0.0000000000        0.5054291630        0.3535780235
Ru            0.5000000000        0.5053993171        0.3528171434
O             0.2499682655        0.6927949062        0.3607334926
O             0.7500317345        0.6927949062        0.3607334926
O             0.0000000000        0.0054520815        0.4122141661
O             0.5000000000        0.0054771981        0.4112769485
O             0.0000000000        0.5054375193        0.4453569654
O             0.5000000000        0.5053458637        0.4455646065
Ru            0.0000000000        0.0054317060        0.5000010000
Ru            0.5000000000        0.0054606804        0.5000010000
O             0.2501485652        0.1919081983        0.5000010000
O             0.7498514348        0.1919081983        0.5000010000
Ru            0.2505435069        0.5054385285        0.5000010000
Ru            0.7494564931        0.5054385285        0.5000010000
O             0.2501909742        0.8189719247        0.5000010000
O             0.7498090258        0.8189719247        0.5000010000
O             0.0000000000        0.5054375193        0.5546440346
O             0.5000000000        0.5053458637        0.5544363935
O             0.0000000000        0.0054520815        0.5877868339
O             0.5000000000        0.0054771981        0.5887240515
Ru            0.2580618047        0.0054016652        0.6433478927
Ru            0.7419381953        0.0054016652        0.6433478927
O             0.2498487837        0.3180139161        0.6393529526
O             0.7501512163        0.3180139161        0.6393529526
Ru            0.0000000000        0.5054291630        0.6464229765
Ru            0.5000000000        0.5053993171        0.6471838566
O             0.2499682655        0.6927949062        0.6392675074
O             0.7500317345        0.6927949062        0.6392675074
O             0.0000000000        0.0054171637        0.6970379058
O             0.5000000000        0.0052864090        0.6928401529
O             0.0000000000        0.5059814529        0.7241211963
O             0.5000000000        0.5053380084        0.7247244093
H             0.0000000000        0.0054670038        0.2587471642
H             0.0000000000        0.0054670038        0.7412528358



     Writing config-only to output data dir /storage/home/mgm6007/ixd4/Maria/StrainJin_Files/RuO2-110-0-2/RuO2-110-0-2.save/
     NEW-OLD atomic charge density approx. for the potential

     Check: negative core charge=   -0.000001

     negative rho (up, down):  1.588E-04 0.000E+00

     add environment contribution to local potential
     Polarization accuracy = 2.1E-12, # of iterations =  42

     total cpu time spent up to now is   210217.7 secs

     per-process dynamical memory:   226.4 Mb

     Self-consistent Calculation

     iteration #  1     ecut=    50.00 Ry     beta= 0.70
     Davidson diagonalization with overlap
     ethr =  1.00E-06,  avg # of iterations =  2.0

     Threshold (ethr) on eigenvalues was too large:
     Diagonalizing with lowered threshold

     Davidson diagonalization with overlap
     ethr =  2.96E-10,  avg # of iterations =  4.0

     negative rho (up, down):  1.572E-04 0.000E+00

     add environment contribution to local potential
     Polarization accuracy = 2.2E-12, # of iterations =  42

     total cpu time spent up to now is   210371.9 secs

     total energy              =   -3430.06020540 Ry
     estimated scf accuracy    <       0.00000086 Ry
     electrostatic embedding   =      -0.05927885 Ry
     cavitation energy         =       0.02098728 Ry
     PV energy                 =      -0.07852230 Ry
     correction to one-el term =     192.47868572 Ry

     iteration #  2     ecut=    50.00 Ry     beta= 0.70
     Davidson diagonalization with overlap
     ethr =  2.36E-10,  avg # of iterations =  2.0

     negative rho (up, down):  1.571E-04 0.000E+00

     add environment contribution to local potential
     Polarization accuracy = 2.1E-12, # of iterations =  42

     total cpu time spent up to now is   210513.5 secs

     total energy              =   -3430.06020605 Ry
     estimated scf accuracy    <       0.00000077 Ry
     electrostatic embedding   =      -0.05929119 Ry
     cavitation energy         =       0.02098691 Ry
     PV energy                 =      -0.07852194 Ry
     correction to one-el term =     192.47722168 Ry

     iteration #  3     ecut=    50.00 Ry     beta= 0.70
     Davidson diagonalization with overlap
     ethr =  2.14E-10,  avg # of iterations =  2.0

     negative rho (up, down):  1.563E-04 0.000E+00

     add environment contribution to local potential
     Polarization accuracy = 6.6E-12, # of iterations =  40

     total cpu time spent up to now is   210649.6 secs

     total energy              =   -3430.06020627 Ry
     estimated scf accuracy    <       0.00000034 Ry
     electrostatic embedding   =      -0.05929508 Ry
     cavitation energy         =       0.02098690 Ry
     PV energy                 =      -0.07852175 Ry
     correction to one-el term =     192.47721720 Ry

     iteration #  4     ecut=    50.00 Ry     beta= 0.70
     Davidson diagonalization with overlap
     ethr =  9.27E-11,  avg # of iterations =  3.0

     negative rho (up, down):  1.563E-04 0.000E+00

     add environment contribution to local potential
     Polarization accuracy = 4.5E-12, # of iterations =  40

     total cpu time spent up to now is   210790.0 secs

     total energy              =   -3430.06020669 Ry
     estimated scf accuracy    <       0.00000005 Ry
     electrostatic embedding   =      -0.05930351 Ry
     cavitation energy         =       0.02098672 Ry
     PV energy                 =      -0.07852157 Ry
     correction to one-el term =     192.47645647 Ry

     iteration #  5     ecut=    50.00 Ry     beta= 0.70
     Davidson diagonalization with overlap
     ethr =  1.43E-11,  avg # of iterations =  3.0

     negative rho (up, down):  1.564E-04 0.000E+00

     add environment contribution to local potential
     Polarization accuracy = 8.5E-12, # of iterations =  40

     total cpu time spent up to now is   210919.4 secs

     total energy              =   -3430.06020676 Ry
     estimated scf accuracy    <       0.00000003 Ry
     electrostatic embedding   =      -0.05930547 Ry
     cavitation energy         =       0.02098669 Ry
     PV energy                 =      -0.07852156 Ry
     correction to one-el term =     192.47635579 Ry

     iteration #  6     ecut=    50.00 Ry     beta= 0.70
     Davidson diagonalization with overlap
     ethr =  9.64E-12,  avg # of iterations =  3.0

     negative rho (up, down):  1.567E-04 0.000E+00

     add environment contribution to local potential
     Polarization accuracy = 6.0E-12, # of iterations =  41

     total cpu time spent up to now is   211061.2 secs

     total energy              =   -3430.06020688 Ry
     estimated scf accuracy    <          7.6E-09 Ry
     electrostatic embedding   =      -0.05930921 Ry
     cavitation energy         =       0.02098664 Ry
     PV energy                 =      -0.07852155 Ry
     correction to one-el term =     192.47623975 Ry

     iteration #  7     ecut=    50.00 Ry     beta= 0.70
     Davidson diagonalization with overlap
     ethr =  2.11E-12,  avg # of iterations =  4.0

     negative rho (up, down):  1.569E-04 0.000E+00

     add environment contribution to local potential
     Polarization accuracy = 6.6E-12, # of iterations =  41

     total cpu time spent up to now is   211197.5 secs

     total energy              =   -3430.06020691 Ry
     estimated scf accuracy    <          1.6E-09 Ry
     electrostatic embedding   =      -0.05931317 Ry
     cavitation energy         =       0.02098659 Ry
     PV energy                 =      -0.07852154 Ry
     correction to one-el term =     192.47606206 Ry

     iteration #  8     ecut=    50.00 Ry     beta= 0.70
     Davidson diagonalization with overlap
     ethr =  4.48E-13,  avg # of iterations =  2.0

     negative rho (up, down):  1.571E-04 0.000E+00

     add environment contribution to local potential
     Polarization accuracy = 5.1E-12, # of iterations =  41

     total cpu time spent up to now is   211334.0 secs

     total energy              =   -3430.06020690 Ry
     estimated scf accuracy    <          1.2E-09 Ry
     electrostatic embedding   =      -0.05931469 Ry
     cavitation energy         =       0.02098657 Ry
     PV energy                 =      -0.07852152 Ry
     correction to one-el term =     192.47595866 Ry

     iteration #  9     ecut=    50.00 Ry     beta= 0.70
     Davidson diagonalization with overlap
     ethr =  3.24E-13,  avg # of iterations =  2.0

     negative rho (up, down):  1.573E-04 0.000E+00

     add environment contribution to local potential
     Polarization accuracy = 6.7E-12, # of iterations =  41

     total cpu time spent up to now is   211474.3 secs

     total energy              =   -3430.06020690 Ry
     estimated scf accuracy    <          2.6E-10 Ry
     electrostatic embedding   =      -0.05931564 Ry
     cavitation energy         =       0.02098657 Ry
     PV energy                 =      -0.07852151 Ry
     correction to one-el term =     192.47590345 Ry

     iteration # 10     ecut=    50.00 Ry     beta= 0.70
     Davidson diagonalization with overlap
     ethr =  1.00E-13,  avg # of iterations =  2.0

     negative rho (up, down):  1.575E-04 0.000E+00

     add environment contribution to local potential
     Polarization accuracy = 6.7E-12, # of iterations =  41

     total cpu time spent up to now is   211615.0 secs

     total energy              =   -3430.06020689 Ry
     estimated scf accuracy    <          1.9E-10 Ry
     electrostatic embedding   =      -0.05931665 Ry
     cavitation energy         =       0.02098656 Ry
     PV energy                 =      -0.07852149 Ry
     correction to one-el term =     192.47584481 Ry

     iteration # 11     ecut=    50.00 Ry     beta= 0.70
     Davidson diagonalization with overlap
     ethr =  1.00E-13,  avg # of iterations =  2.0

     negative rho (up, down):  1.578E-04 0.000E+00

     add environment contribution to local potential
     Polarization accuracy = 7.2E-12, # of iterations =  41

     total cpu time spent up to now is   211754.3 secs

     total energy              =   -3430.06020689 Ry
     estimated scf accuracy    <          1.2E-10 Ry
     electrostatic embedding   =      -0.05931733 Ry
     cavitation energy         =       0.02098656 Ry
     PV energy                 =      -0.07852148 Ry
     correction to one-el term =     192.47580966 Ry

     iteration # 12     ecut=    50.00 Ry     beta= 0.70
     Davidson diagonalization with overlap
     ethr =  1.00E-13,  avg # of iterations =  2.0

     negative rho (up, down):  1.582E-04 0.000E+00

     add environment contribution to local potential
     Polarization accuracy = 6.7E-12, # of iterations =  41
