
     Program PWSCF v.7.2 starts on 21Jul2023 at 11:32:38 
        Git branch: heads/qe-7.2
        Last git commit: b4c5e8deeb7d1863e7553a87b45f8d22c21926a5
        Last git commit date: Mon Mar 27 16:12:09 2023 +0000
        Last git commit subject: Merge branch 'merge_fix_hubbard' into 'develop'

     This program is part of the open-source Quantum ESPRESSO suite
     for quantum simulation of materials; please cite
         "P. Giannozzi et al., J. Phys.:Condens. Matter 21 395502 (2009);
         "P. Giannozzi et al., J. Phys.:Condens. Matter 29 465901 (2017);
         "P. Giannozzi et al., J. Chem. Phys. 152 154105 (2020);
          URL http://www.quantum-espresso.org", 
     in publications or presentations arising from this work. More details at
     http://www.quantum-espresso.org/quote

     Parallel version (MPI), running on    20 processors

     MPI processes distributed on     1 nodes
     110728 MiB available memory on the printing compute node when the environment starts
 
     Reading input from RuO2-110-0-012345.in

     Current dimensions of program PWSCF are:
     Max number of different atomic species (ntypx) = 10
     Max number of k-points (npk) =  40000
     Max angular momentum in pseudopotentials (lmaxx) =  4
 
     Reading input from environ.in:
     * Environ restarting
     * setting up water environment
     * using electronic solvent mode
     * setting boundary derivatives method to SCCS default
     
     file O.pbe-n-kjpaw_psl.0.1.UPF: wavefunction(s)  2P renormalized
     Found identity + (  0.5000  0.0000 -0.0000) symmetry
     This is a supercell, fractional translations are disabled
     Message from routine setup:
     using ibrav=0 with symmetry is DISCOURAGED, use correct ibrav instead
 
     R & G space division:  proc/nbgrp/npool/nimage =      20
     Subspace diagonalization in iterative solution of the eigenvalue problem:
     one sub-group per band group will be used
     scalapack distributed-memory algorithm (size of sub-group:  2*  2 procs)

 
     Parallelization info
     --------------------
     sticks:   dense  smooth     PW     G-vecs:    dense   smooth      PW
     Min         282     113     29                56190    14217    1913
     Max         283     114     30                56201    14227    1932
     Sum        5657    2263    593              1123933   284439   38425
 
     Using Slab Decomposition
 


     bravais-lattice index     =            0
     lattice parameter (alat)  =      12.1041  a.u.
     unit-cell volume          =    5954.5483 (a.u.)^3
     number of atoms/cell      =           52
     number of atomic types    =            3
     number of electrons       =       372.00
     number of Kohn-Sham states=          223
     kinetic-energy cutoff     =      50.0000  Ry
     charge density cutoff     =     500.0000  Ry
     scf convergence threshold =      1.0E-09
     mixing beta               =       0.7000
     number of iterations used =            8  local-TF  mixing
     energy convergence thresh.=      1.0E-04
     force convergence thresh. =      1.0E-04
     Exchange-correlation= PBE
                           (   1   4   3   4   0   0   0)
     nstep                     =          200


     ================================================================================
 
                                  Environ Setup Summary

     ================================================================================
 
     Please cite

          O. Andreussi, I. Dabo and N. Marzari, J. Chem. Phys. 136, 064102 (2012)

     in publications or presentations arising from this work.

     ================================================================================
 
     Parameters
     ==========

     compensation onset threshold      =               0.1000E+00
     static permittivity               =                    78.30
     surface tension in input (dyn/cm) =                    47.90
     surface tension in internal units =               0.6153E-04
     external pressure in input (GPa)  =                    -0.36
     external pressure in inter. units =              -0.2447E-04

     Solvent Boundary
     ================

     solvent mode                      =               electronic
     derivatives method                =                    chain
     numerical core for derivatives    =                      fft
     switching function adopted        =                     SCCS
     density limit for vacuum region   =               0.5000E-02
     density limit for bulk solvent    =               0.1000E-03

     Electrostatic Setup
     ===================

     electrostatic problem to solve    =              generalized
     numerical solver adopted          =                       cg
     type of auxiliary density adopted =                     none
     numerical core for poisson        =                      fft
     type of pbc corrections           =                parabolic
     numerical core for corrections    =                      1da

     ================================================================================
 

     celldm(1)=  12.104053  celldm(2)=   0.000000  celldm(3)=   0.000000
     celldm(4)=   0.000000  celldm(5)=   0.000000  celldm(6)=   0.000000

     crystal axes: (cart. coord. in units of alat)
               a(1) = (   1.000000   0.000000   0.000000 )  
               a(2) = (   0.000000   0.971735   0.000000 )  
               a(3) = (   0.000000   0.000000   3.455479 )  

     reciprocal axes: (cart. coord. in units 2 pi/alat)
               b(1) = (  1.000000  0.000000  0.000000 )  
               b(2) = (  0.000000  1.029087  0.000000 )  
               b(3) = (  0.000000  0.000000  0.289395 )  


     PseudoPot. # 1 for O  read from file:
     /gpfs/group/ixd4/default/Simon/pseudopotentials/materialscloud/SSSP_1.3.0_PBE_efficiency/O.pbe-n-kjpaw_psl.0.1.UPF
     MD5 check sum: 0234752ac141de4415c5fc33072bef88
     Pseudo is Projector augmented-wave + core cor, Zval =  6.0
     Generated using "atomic" code by A. Dal Corso  v.5.0.99 svn rev. 10869
     Shape of augmentation charge: BESSEL
     Using radial grid of 1095 points,  4 beta functions with: 
                l(1) =   0
                l(2) =   0
                l(3) =   1
                l(4) =   1
     Q(r) pseudized with 0 coefficients 


     PseudoPot. # 2 for Ru read from file:
     /gpfs/group/ixd4/default/Simon/pseudopotentials/materialscloud/SSSP_1.3.0_PBE_efficiency/Ru_ONCV_PBE-1.0.oncvpsp.upf
     MD5 check sum: be037bb81c227cfb9b1461a9f099f4bd
     Pseudo is Norm-conserving, Zval = 16.0
     Generated using ONCVPSP code by D. R. Hamann
     Using radial grid of 1458 points,  6 beta functions with: 
                l(1) =   0
                l(2) =   0
                l(3) =   1
                l(4) =   1
                l(5) =   2
                l(6) =   2

     PseudoPot. # 3 for H  read from file:
     /gpfs/group/ixd4/default/Simon/pseudopotentials/materialscloud/SSSP_1.3.0_PBE_efficiency/H.pbe-rrkjus_psl.1.0.0.UPF
     MD5 check sum: f52b6d4d1c606e5624b1dc7b2218f220
     Pseudo is Ultrasoft, Zval =  1.0
     Generated using "atomic" code by A. Dal Corso  v.5.1
     Using radial grid of  929 points,  2 beta functions with: 
                l(1) =   0
                l(2) =   0
     Q(r) pseudized with 0 coefficients 


     atomic species   valence    mass     pseudopotential
        O              6.00    15.99940     O ( 1.00)
        Ru            16.00   101.07000     Ru( 1.00)
        H              1.00     1.00794     H ( 1.00)

      4 Sym. Ops. (no inversion) found



   Cartesian axes

     site n.     atom                  positions (alat units)
         1           O   tau(   1) = (   0.0014491   0.4858677   0.9098660  )
         2           O   tau(   2) = (   0.5014490   0.4858677   0.9098659  )
         3           O   tau(   3) = (  -0.0032312   0.0000000   0.9905402  )
         4           O   tau(   4) = (   0.4967688   0.0000000   0.9905402  )
         5           Ru  tau(   5) = (   0.2471517   0.0000000   1.2432661  )
         6           Ru  tau(   6) = (   0.7471517   0.0000000   1.2432661  )
         7           O   tau(   7) = (   0.2475809   0.2947208   1.2264317  )
         8           O   tau(   8) = (   0.7475810   0.2947208   1.2264317  )
         9           Ru  tau(   9) = (  -0.0029139   0.4858677   1.2316029  )
        10           Ru  tau(  10) = (   0.4970862   0.4858677   1.2316025  )
        11           O   tau(  11) = (   0.2475809   0.6770146   1.2264317  )
        12           O   tau(  12) = (   0.7475810   0.6770146   1.2264317  )
        13           O   tau(  13) = (  -0.0028141   0.0000000   1.4252670  )
        14           O   tau(  14) = (   0.4971858   0.0000000   1.4252669  )
        15           O   tau(  15) = (  -0.0030325   0.4858677   1.5337007  )
        16           O   tau(  16) = (   0.4969675   0.4858677   1.5337001  )
        17           Ru  tau(  17) = (  -0.0030299   0.0000000   1.7277432  )
        18           Ru  tau(  18) = (   0.4969701   0.0000000   1.7277432  )
        19           O   tau(  19) = (   0.2469045   0.1893095   1.7277432  )
        20           O   tau(  20) = (   0.7469044   0.1893095   1.7277432  )
        21           Ru  tau(  21) = (   0.2467997   0.4858677   1.7277432  )
        22           Ru  tau(  22) = (   0.7467992   0.4858677   1.7277432  )
        23           O   tau(  23) = (   0.2469045   0.7824268   1.7277432  )
        24           O   tau(  24) = (   0.7469044   0.7824268   1.7277432  )
        25           O   tau(  25) = (  -0.0030325   0.4858677   1.9217822  )
        26           O   tau(  26) = (   0.4969675   0.4858677   1.9217828  )
        27           O   tau(  27) = (  -0.0028141   0.0000000   2.0302160  )
        28           O   tau(  28) = (   0.4971858   0.0000000   2.0302160  )
        29           Ru  tau(  29) = (   0.2471517   0.0000000   2.2122168  )
        30           Ru  tau(  30) = (   0.7471517   0.0000000   2.2122168  )
        31           O   tau(  31) = (   0.2475809   0.2947208   2.2290513  )
        32           O   tau(  32) = (   0.7475810   0.2947208   2.2290513  )
        33           Ru  tau(  33) = (  -0.0029139   0.4858677   2.2238801  )
        34           Ru  tau(  34) = (   0.4970862   0.4858677   2.2238804  )
        35           O   tau(  35) = (   0.2475809   0.6770146   2.2290513  )
        36           O   tau(  36) = (   0.7475810   0.6770146   2.2290513  )
        37           O   tau(  37) = (  -0.0032312   0.0000000   2.4649462  )
        38           O   tau(  38) = (   0.4967688   0.0000000   2.4649462  )
        39           O   tau(  39) = (   0.0014491   0.4858677   2.5456169  )
        40           O   tau(  40) = (   0.5014490   0.4858677   2.5456171  )
        41           H   tau(  41) = (   0.1516868   0.4858677   0.8784240  )
        42           H   tau(  42) = (   0.1516868   0.4858677   2.5770555  )
        43           H   tau(  43) = (   0.6516871   0.4858677   0.8784238  )
        44           H   tau(  44) = (   0.6516871   0.4858677   2.5770557  )
        45           H   tau(  45) = (  -0.0048061   0.1199709   0.9037145  )
        46           H   tau(  46) = (  -0.0048061   0.1199709   2.5517650  )
        47           H   tau(  47) = (   0.4951939   0.1199709   0.9037145  )
        48           H   tau(  48) = (   0.4951939   0.1199709   2.5517650  )
        49           H   tau(  49) = (  -0.0048061   0.8517645   0.9037145  )
        50           H   tau(  50) = (  -0.0048061   0.8517645   2.5517650  )
        51           H   tau(  51) = (   0.4951939   0.8517645   0.9037145  )
        52           H   tau(  52) = (   0.4951939   0.8517645   2.5517650  )

     number of k points=     1  Marzari-Vanderbilt smearing, width (Ry)=  0.0300
                       cart. coord. in units 2pi/alat
        k(    1) = (   0.2500000   0.2572717   0.0000000), wk =   2.0000000

     Dense  grid:  1123933 G-vectors     FFT dimensions: (  90,  90, 300)

     Smooth grid:   284439 G-vectors     FFT dimensions: (  60,  54, 192)

     Estimated max dynamical RAM per process >     173.33 MB

     Estimated total dynamical RAM >       3.39 GB

     Check: negative core charge=   -0.000001

     Initial potential from superposition of free atoms

     starting charge     371.9932, renormalised to     372.0000

     add environment contribution to local potential
     Polarization accuracy = 3.1E-12, # of iterations =  20

     negative rho (up, down):  2.457E-05 0.000E+00
     Starting wfcs are  244 randomized atomic wfcs
     Checking if some PAW data can be deallocated... 

     total cpu time spent up to now is     1055.0 secs

     per-process dynamical memory:   146.1 Mb

     Self-consistent Calculation

     iteration #  1     ecut=    50.00 Ry     beta= 0.70
     Davidson diagonalization with overlap
     ethr =  1.00E-02,  avg # of iterations =  3.0

     total cpu time spent up to now is     1283.8 secs

     total energy              =   -3440.75693065 Ry
     estimated scf accuracy    <       8.86612693 Ry
     electrostatic embedding   =      -0.00178188 Ry
     cavitation energy         =       0.01876309 Ry
     PV energy                 =      -0.09079820 Ry
     correction to one-el term =     224.52505733 Ry

     iteration #  2     ecut=    50.00 Ry     beta= 0.70
     Davidson diagonalization with overlap
     ethr =  2.38E-03,  avg # of iterations =  2.0

     total cpu time spent up to now is     1619.7 secs

     total energy              =   -3442.55824925 Ry
     estimated scf accuracy    <       1.53624584 Ry
     electrostatic embedding   =      -0.00314478 Ry
     cavitation energy         =       0.01845011 Ry
     PV energy                 =      -0.09240210 Ry
     correction to one-el term =     224.52962063 Ry

     iteration #  3     ecut=    50.00 Ry     beta= 0.70
     Davidson diagonalization with overlap
     ethr =  4.13E-04,  avg # of iterations =  7.0

     total cpu time spent up to now is     1903.1 secs

     total energy              =   -3442.60668108 Ry
     estimated scf accuracy    <       0.61269578 Ry
     electrostatic embedding   =      -0.00369275 Ry
     cavitation energy         =       0.01852652 Ry
     PV energy                 =      -0.09264878 Ry
     correction to one-el term =     224.53104278 Ry

     iteration #  4     ecut=    50.00 Ry     beta= 0.70
     Davidson diagonalization with overlap
     ethr =  1.65E-04,  avg # of iterations =  2.0

     total cpu time spent up to now is     2244.4 secs

     total energy              =   -3442.57555546 Ry
     estimated scf accuracy    <       0.37406738 Ry
     electrostatic embedding   =      -0.00425071 Ry
     cavitation energy         =       0.01897930 Ry
     PV energy                 =      -0.09228039 Ry
     correction to one-el term =     224.53201892 Ry

     iteration #  5     ecut=    50.00 Ry     beta= 0.70
     Davidson diagonalization with overlap
     ethr =  1.01E-04,  avg # of iterations =  6.0

     total cpu time spent up to now is     2515.6 secs

     total energy              =   -3442.56703591 Ry
     estimated scf accuracy    <       0.37714399 Ry
     electrostatic embedding   =      -0.00444607 Ry
     cavitation energy         =       0.01959423 Ry
     PV energy                 =      -0.09138453 Ry
     correction to one-el term =     224.53192859 Ry

     iteration #  6     ecut=    50.00 Ry     beta= 0.70
     Davidson diagonalization with overlap
     ethr =  1.01E-04,  avg # of iterations =  2.0

     total cpu time spent up to now is     2788.4 secs

     total energy              =   -3442.55279843 Ry
     estimated scf accuracy    <       0.14158022 Ry
     electrostatic embedding   =      -0.00444930 Ry
     cavitation energy         =       0.02041633 Ry
     PV energy                 =      -0.08987051 Ry
     correction to one-el term =     224.53119462 Ry

     iteration #  7     ecut=    50.00 Ry     beta= 0.70
     Davidson diagonalization with overlap
     ethr =  3.81E-05,  avg # of iterations =  7.0

     total cpu time spent up to now is     3064.1 secs

     total energy              =   -3442.54321626 Ry
     estimated scf accuracy    <       0.20176814 Ry
     electrostatic embedding   =      -0.00413916 Ry
     cavitation energy         =       0.02127107 Ry
     PV energy                 =      -0.08785521 Ry
     correction to one-el term =     224.52958987 Ry

     iteration #  8     ecut=    50.00 Ry     beta= 0.70
     Davidson diagonalization with overlap
     ethr =  3.81E-05,  avg # of iterations = 10.0

     add environment contribution to local potential
     Polarization accuracy = 2.3E-12, # of iterations =  42

     total cpu time spent up to now is     3355.3 secs

     total energy              =   -3442.54305484 Ry
     estimated scf accuracy    <       0.04068928 Ry
     electrostatic embedding   =      -0.00368436 Ry
     cavitation energy         =       0.02191455 Ry
     PV energy                 =      -0.08644629 Ry
     correction to one-el term =     224.52775078 Ry

     iteration #  9     ecut=    50.00 Ry     beta= 0.70
     Davidson diagonalization with overlap
     ethr =  1.09E-05,  avg # of iterations = 10.0

     add environment contribution to local potential
     Polarization accuracy = 4.4E-12, # of iterations =  41

     total cpu time spent up to now is     3665.2 secs

     total energy              =   -3442.59248472 Ry
     estimated scf accuracy    <       0.07143994 Ry
     electrostatic embedding   =      -0.07171952 Ry
     cavitation energy         =       0.02157530 Ry
     PV energy                 =      -0.08631147 Ry
     correction to one-el term =     155.82752805 Ry

     iteration # 10     ecut=    50.00 Ry     beta= 0.70
     Davidson diagonalization with overlap
     ethr =  1.09E-05,  avg # of iterations =  1.0

     add environment contribution to local potential
     Polarization accuracy = 3.6E-12, # of iterations =  39

     total cpu time spent up to now is     4002.7 secs

     total energy              =   -3442.59243774 Ry
     estimated scf accuracy    <       0.02911641 Ry
     electrostatic embedding   =      -0.07113092 Ry
     cavitation energy         =       0.02133408 Ry
     PV energy                 =      -0.08639696 Ry
     correction to one-el term =     156.47815330 Ry

     iteration # 11     ecut=    50.00 Ry     beta= 0.70
     Davidson diagonalization with overlap
     ethr =  7.83E-06,  avg # of iterations =  2.0

     add environment contribution to local potential
     Polarization accuracy = 8.2E-12, # of iterations =  38

     total cpu time spent up to now is     4285.4 secs

     total energy              =   -3442.58980655 Ry
     estimated scf accuracy    <       0.01296256 Ry
     electrostatic embedding   =      -0.07140113 Ry
     cavitation energy         =       0.02109136 Ry
     PV energy                 =      -0.08651256 Ry
     correction to one-el term =     157.21458324 Ry

     iteration # 12     ecut=    50.00 Ry     beta= 0.70
     Davidson diagonalization with overlap
     ethr =  3.48E-06,  avg # of iterations =  8.0

     negative rho (up, down):  1.487E-08 0.000E+00

     add environment contribution to local potential
     Polarization accuracy = 4.3E-12, # of iterations =  36

     total cpu time spent up to now is     4622.1 secs

     total energy              =   -3442.59032970 Ry
     estimated scf accuracy    <       0.00589445 Ry
     electrostatic embedding   =      -0.07310651 Ry
     cavitation energy         =       0.02072613 Ry
     PV energy                 =      -0.08670514 Ry
     correction to one-el term =     158.75886890 Ry

     iteration # 13     ecut=    50.00 Ry     beta= 0.70
     Davidson diagonalization with overlap
     ethr =  1.58E-06,  avg # of iterations =  8.0

     negative rho (up, down):  2.503E-06 0.000E+00

     add environment contribution to local potential
     Polarization accuracy = 4.7E-12, # of iterations =  36

     total cpu time spent up to now is     4860.7 secs

     total energy              =   -3442.59213797 Ry
     estimated scf accuracy    <       0.00292627 Ry
     electrostatic embedding   =      -0.07056817 Ry
     cavitation energy         =       0.02056823 Ry
     PV energy                 =      -0.08689401 Ry
     correction to one-el term =     160.54787846 Ry

     iteration # 14     ecut=    50.00 Ry     beta= 0.70
     Davidson diagonalization with overlap
     ethr =  7.87E-07,  avg # of iterations =  8.0

     negative rho (up, down):  1.592E-04 0.000E+00

     add environment contribution to local potential
     Polarization accuracy = 4.9E-12, # of iterations =  36

     total cpu time spent up to now is     5133.2 secs

     total energy              =   -3442.59314471 Ry
     estimated scf accuracy    <       0.00317522 Ry
     electrostatic embedding   =      -0.06940291 Ry
     cavitation energy         =       0.02053205 Ry
     PV energy                 =      -0.08698232 Ry
     correction to one-el term =     161.74377095 Ry

     iteration # 15     ecut=    50.00 Ry     beta= 0.70
     Davidson diagonalization with overlap
     ethr =  7.87E-07,  avg # of iterations =  8.0

     negative rho (up, down):  1.025E-06 0.000E+00

     add environment contribution to local potential
     Polarization accuracy = 4.1E-12, # of iterations =  36

     total cpu time spent up to now is     5435.6 secs

     total energy              =   -3442.59345322 Ry
     estimated scf accuracy    <       0.00213237 Ry
     electrostatic embedding   =      -0.06791484 Ry
     cavitation energy         =       0.02048063 Ry
     PV energy                 =      -0.08706913 Ry
     correction to one-el term =     162.68637691 Ry

     iteration # 16     ecut=    50.00 Ry     beta= 0.70
     Davidson diagonalization with overlap
     ethr =  5.73E-07,  avg # of iterations = 10.0

     negative rho (up, down):  9.720E-04 0.000E+00

     add environment contribution to local potential
     Polarization accuracy = 3.9E-12, # of iterations =  36

     total cpu time spent up to now is     5758.3 secs

     total energy              =   -3442.59370421 Ry
     estimated scf accuracy    <       0.00043805 Ry
     electrostatic embedding   =      -0.06529273 Ry
     cavitation energy         =       0.02052949 Ry
     PV energy                 =      -0.08704292 Ry
     correction to one-el term =     163.18116138 Ry

     iteration # 17     ecut=    50.00 Ry     beta= 0.70
     Davidson diagonalization with overlap
     ethr =  1.18E-07,  avg # of iterations = 17.0

     negative rho (up, down):  7.137E-04 0.000E+00

     add environment contribution to local potential
     Polarization accuracy = 4.2E-12, # of iterations =  36

     total cpu time spent up to now is     6097.9 secs

     total energy              =   -3442.59380697 Ry
     estimated scf accuracy    <       0.00006037 Ry
     electrostatic embedding   =      -0.06263452 Ry
     cavitation energy         =       0.02053855 Ry
     PV energy                 =      -0.08706454 Ry
     correction to one-el term =     163.76592828 Ry

     iteration # 18     ecut=    50.00 Ry     beta= 0.70
     Davidson diagonalization with overlap
     ethr =  1.62E-08,  avg # of iterations =  2.0

     negative rho (up, down):  3.722E-04 0.000E+00

     add environment contribution to local potential
     Polarization accuracy = 3.9E-12, # of iterations =  36

     total cpu time spent up to now is     6420.2 secs

     total energy              =   -3442.59380884 Ry
     estimated scf accuracy    <       0.00005775 Ry
     electrostatic embedding   =      -0.06192012 Ry
     cavitation energy         =       0.02052887 Ry
     PV energy                 =      -0.08706012 Ry
     correction to one-el term =     163.87281836 Ry

     iteration # 19     ecut=    50.00 Ry     beta= 0.70
     Davidson diagonalization with overlap
     ethr =  1.55E-08,  avg # of iterations =  3.0

     negative rho (up, down):  1.317E-04 0.000E+00

     add environment contribution to local potential
     Polarization accuracy = 3.7E-12, # of iterations =  36

     total cpu time spent up to now is     6783.2 secs

     total energy              =   -3442.59381027 Ry
     estimated scf accuracy    <       0.00001279 Ry
     electrostatic embedding   =      -0.06142213 Ry
     cavitation energy         =       0.02052277 Ry
     PV energy                 =      -0.08705600 Ry
     correction to one-el term =     163.93784193 Ry

     iteration # 20     ecut=    50.00 Ry     beta= 0.70
     Davidson diagonalization with overlap
     ethr =  3.44E-09,  avg # of iterations =  5.0

     negative rho (up, down):  1.121E-04 0.000E+00

     add environment contribution to local potential
     Polarization accuracy = 3.9E-12, # of iterations =  36

     total cpu time spent up to now is     7132.5 secs

     total energy              =   -3442.59381023 Ry
     estimated scf accuracy    <       0.00000258 Ry
     electrostatic embedding   =      -0.06113340 Ry
     cavitation energy         =       0.02051090 Ry
     PV energy                 =      -0.08705206 Ry
     correction to one-el term =     164.00201945 Ry

     iteration # 21     ecut=    50.00 Ry     beta= 0.70
     Davidson diagonalization with overlap
     ethr =  6.93E-10,  avg # of iterations =  2.0

     negative rho (up, down):  6.438E-05 0.000E+00

     add environment contribution to local potential
     Polarization accuracy = 5.1E-12, # of iterations =  36

     total cpu time spent up to now is     7420.3 secs

     total energy              =   -3442.59381016 Ry
     estimated scf accuracy    <       0.00000051 Ry
     electrostatic embedding   =      -0.06102925 Ry
     cavitation energy         =       0.02051019 Ry
     PV energy                 =      -0.08704709 Ry
     correction to one-el term =     164.01021795 Ry

     iteration # 22     ecut=    50.00 Ry     beta= 0.70
     Davidson diagonalization with overlap
     ethr =  1.38E-10,  avg # of iterations =  2.0

     negative rho (up, down):  6.977E-05 0.000E+00

     add environment contribution to local potential
     Polarization accuracy = 7.6E-12, # of iterations =  36

     total cpu time spent up to now is     7741.7 secs

     total energy              =   -3442.59381076 Ry
     estimated scf accuracy    <       0.00000052 Ry
     electrostatic embedding   =      -0.06105437 Ry
     cavitation energy         =       0.02050933 Ry
     PV energy                 =      -0.08704398 Ry
     correction to one-el term =     164.00046590 Ry

     iteration # 23     ecut=    50.00 Ry     beta= 0.70
     Davidson diagonalization with overlap
     ethr =  1.38E-10,  avg # of iterations =  1.0

     negative rho (up, down):  6.761E-05 0.000E+00

     add environment contribution to local potential
     Polarization accuracy = 3.5E-12, # of iterations =  36

     total cpu time spent up to now is     8024.2 secs

     total energy              =   -3442.59381124 Ry
     estimated scf accuracy    <       0.00000014 Ry
     electrostatic embedding   =      -0.06107045 Ry
     cavitation energy         =       0.02050911 Ry
     PV energy                 =      -0.08704296 Ry
     correction to one-el term =     163.99720442 Ry

     iteration # 24     ecut=    50.00 Ry     beta= 0.70
     Davidson diagonalization with overlap
     ethr =  3.66E-11,  avg # of iterations =  2.0

     negative rho (up, down):  6.767E-05 0.000E+00

     add environment contribution to local potential
     Polarization accuracy = 9.6E-12, # of iterations =  35

     total cpu time spent up to now is     8338.5 secs

     total energy              =   -3442.59381153 Ry
     estimated scf accuracy    <       0.00000008 Ry
     electrostatic embedding   =      -0.06107798 Ry
     cavitation energy         =       0.02050904 Ry
     PV energy                 =      -0.08704256 Ry
     correction to one-el term =     163.99475813 Ry

     iteration # 25     ecut=    50.00 Ry     beta= 0.70
     Davidson diagonalization with overlap
     ethr =  2.23E-11,  avg # of iterations =  1.0

     negative rho (up, down):  6.740E-05 0.000E+00

     add environment contribution to local potential
     Polarization accuracy = 3.9E-12, # of iterations =  36

     total cpu time spent up to now is     8700.3 secs

     total energy              =   -3442.59381184 Ry
     estimated scf accuracy    <       0.00000008 Ry
     electrostatic embedding   =      -0.06109084 Ry
     cavitation energy         =       0.02050906 Ry
     PV energy                 =      -0.08704254 Ry
     correction to one-el term =     163.99215547 Ry

     iteration # 26     ecut=    50.00 Ry     beta= 0.70
     Davidson diagonalization with overlap
     ethr =  2.19E-11,  avg # of iterations =  2.0

     negative rho (up, down):  6.827E-05 0.000E+00

     add environment contribution to local potential
     Polarization accuracy = 6.1E-12, # of iterations =  36

     total cpu time spent up to now is     9021.0 secs

     total energy              =   -3442.59381234 Ry
     estimated scf accuracy    <       0.00000007 Ry
     electrostatic embedding   =      -0.06110652 Ry
     cavitation energy         =       0.02050906 Ry
     PV energy                 =      -0.08704242 Ry
     correction to one-el term =     163.98877797 Ry

     iteration # 27     ecut=    50.00 Ry     beta= 0.70
     Davidson diagonalization with overlap
     ethr =  1.86E-11,  avg # of iterations =  1.0

     negative rho (up, down):  6.980E-05 0.000E+00

     add environment contribution to local potential
     Polarization accuracy = 4.6E-12, # of iterations =  37

     total cpu time spent up to now is     9372.5 secs

     total energy              =   -3442.59381276 Ry
     estimated scf accuracy    <       0.00000007 Ry
     electrostatic embedding   =      -0.06111135 Ry
     cavitation energy         =       0.02050910 Ry
     PV energy                 =      -0.08704229 Ry
     correction to one-el term =     163.98762381 Ry

     iteration # 28     ecut=    50.00 Ry     beta= 0.70
     Davidson diagonalization with overlap
     ethr =  1.75E-11,  avg # of iterations =  1.0

     negative rho (up, down):  7.218E-05 0.000E+00

     add environment contribution to local potential
     Polarization accuracy = 4.6E-12, # of iterations =  37

     total cpu time spent up to now is     9651.6 secs

     total energy              =   -3442.59381379 Ry
     estimated scf accuracy    <       0.00000006 Ry
     electrostatic embedding   =      -0.06111853 Ry
     cavitation energy         =       0.02050921 Ry
     PV energy                 =      -0.08704219 Ry
     correction to one-el term =     163.98584618 Ry

     iteration # 29     ecut=    50.00 Ry     beta= 0.70
     Davidson diagonalization with overlap
     ethr =  1.61E-11,  avg # of iterations =  2.0

     negative rho (up, down):  7.637E-05 0.000E+00

     add environment contribution to local potential
     Polarization accuracy = 4.1E-12, # of iterations =  36

     total cpu time spent up to now is     9999.7 secs

     total energy              =   -3442.59381622 Ry
     estimated scf accuracy    <       0.00000004 Ry
     electrostatic embedding   =      -0.06112775 Ry
     cavitation energy         =       0.02050937 Ry
     PV energy                 =      -0.08704188 Ry
     correction to one-el term =     163.98343522 Ry

     iteration # 30     ecut=    50.00 Ry     beta= 0.70
     Davidson diagonalization with overlap
     ethr =  1.20E-11,  avg # of iterations =  5.0

     negative rho (up, down):  7.820E-05 0.000E+00

     add environment contribution to local potential
     Polarization accuracy = 4.1E-12, # of iterations =  36

     total cpu time spent up to now is    10265.9 secs

     total energy              =   -3442.59382072 Ry
     estimated scf accuracy    <       0.00000003 Ry
     electrostatic embedding   =      -0.06112335 Ry
     cavitation energy         =       0.02050954 Ry
     PV energy                 =      -0.08704167 Ry
     correction to one-el term =     163.98401993 Ry

     iteration # 31     ecut=    50.00 Ry     beta= 0.70
     Davidson diagonalization with overlap
     ethr =  8.03E-12,  avg # of iterations =  3.0

     negative rho (up, down):  7.848E-05 0.000E+00

     add environment contribution to local potential
     Polarization accuracy = 4.5E-12, # of iterations =  37

     total cpu time spent up to now is    10585.6 secs

     total energy              =   -3442.59382523 Ry
     estimated scf accuracy    <       0.00000003 Ry
     electrostatic embedding   =      -0.06111584 Ry
     cavitation energy         =       0.02050946 Ry
     PV energy                 =      -0.08704158 Ry
     correction to one-el term =     163.98554437 Ry

     iteration # 32     ecut=    50.00 Ry     beta= 0.70
     Davidson diagonalization with overlap
     ethr =  7.75E-12,  avg # of iterations =  5.0

     negative rho (up, down):  7.821E-05 0.000E+00

     add environment contribution to local potential
     Polarization accuracy = 4.0E-12, # of iterations =  36

     total cpu time spent up to now is    10810.6 secs

     total energy              =   -3442.59383044 Ry
     estimated scf accuracy    <       0.00000001 Ry
     electrostatic embedding   =      -0.06110976 Ry
     cavitation energy         =       0.02050923 Ry
     PV energy                 =      -0.08704173 Ry
     correction to one-el term =     163.98730982 Ry

     iteration # 33     ecut=    50.00 Ry     beta= 0.70
     Davidson diagonalization with overlap
     ethr =  3.27E-12,  avg # of iterations =  2.0

     negative rho (up, down):  7.771E-05 0.000E+00

     add environment contribution to local potential
     Polarization accuracy = 4.5E-12, # of iterations =  37

     total cpu time spent up to now is    11081.8 secs

     total energy              =   -3442.59383104 Ry
     estimated scf accuracy    <       0.00000001 Ry
     electrostatic embedding   =      -0.06110595 Ry
     cavitation energy         =       0.02050914 Ry
     PV energy                 =      -0.08704189 Ry
     correction to one-el term =     163.98831450 Ry

     iteration # 34     ecut=    50.00 Ry     beta= 0.70
     Davidson diagonalization with overlap
     ethr =  3.27E-12,  avg # of iterations =  2.0

     negative rho (up, down):  7.681E-05 0.000E+00

     add environment contribution to local potential
     Polarization accuracy = 4.0E-12, # of iterations =  36

     total cpu time spent up to now is    11397.5 secs

     total energy              =   -3442.59383288 Ry
     estimated scf accuracy    <       0.00000001 Ry
     electrostatic embedding   =      -0.06110950 Ry
     cavitation energy         =       0.02050910 Ry
     PV energy                 =      -0.08704196 Ry
     correction to one-el term =     163.98763915 Ry

     iteration # 35     ecut=    50.00 Ry     beta= 0.70
     Davidson diagonalization with overlap
     ethr =  3.22E-12,  avg # of iterations =  2.0

     negative rho (up, down):  7.477E-05 0.000E+00

     add environment contribution to local potential
     Polarization accuracy = 1.0E-11, # of iterations =  35

     total cpu time spent up to now is    11734.3 secs

     total energy              =   -3442.59383377 Ry
     estimated scf accuracy    <          7.9E-09 Ry
     electrostatic embedding   =      -0.06110852 Ry
     cavitation energy         =       0.02050906 Ry
     PV energy                 =      -0.08704209 Ry
     correction to one-el term =     163.98801009 Ry

     iteration # 36     ecut=    50.00 Ry     beta= 0.70
     Davidson diagonalization with overlap
     ethr =  2.12E-12,  avg # of iterations =  5.0

     negative rho (up, down):  7.364E-05 0.000E+00

     add environment contribution to local potential
     Polarization accuracy = 3.7E-12, # of iterations =  36

     total cpu time spent up to now is    12037.0 secs

     total energy              =   -3442.59383519 Ry
     estimated scf accuracy    <          4.1E-09 Ry
     electrostatic embedding   =      -0.06110917 Ry
     cavitation energy         =       0.02050906 Ry
     PV energy                 =      -0.08704228 Ry
     correction to one-el term =     163.98809502 Ry

     iteration # 37     ecut=    50.00 Ry     beta= 0.70
     Davidson diagonalization with overlap
     ethr =  1.10E-12,  avg # of iterations =  5.0

     negative rho (up, down):  7.268E-05 0.000E+00

     add environment contribution to local potential
     Polarization accuracy = 3.4E-12, # of iterations =  36

     total cpu time spent up to now is    12365.8 secs

     total energy              =   -3442.59383584 Ry
     estimated scf accuracy    <          1.3E-09 Ry
     electrostatic embedding   =      -0.06110959 Ry
     cavitation energy         =       0.02050908 Ry
     PV energy                 =      -0.08704234 Ry
     correction to one-el term =     163.98808852 Ry

     iteration # 38     ecut=    50.00 Ry     beta= 0.70
     Davidson diagonalization with overlap
     ethr =  3.44E-13,  avg # of iterations =  2.0

     negative rho (up, down):  7.214E-05 0.000E+00

     the potential shift due to the Gaussian-smeared nuclei is    -1.3352 ev

     total cpu time spent up to now is    12643.3 secs

     End of self-consistent calculation

          k = 0.2500 0.2573 0.0000 ( 35510 PWs)   bands (ev):

   -75.0539 -75.0491 -75.0438 -75.0390 -75.0342 -75.0294 -75.0293 -75.0248
   -74.9165 -74.9115 -74.9019 -74.8970 -45.4052 -45.3991 -45.3569 -45.3507
   -45.2988 -45.2925 -45.2846 -45.2784 -45.1590 -45.1529 -45.1444 -45.1383
   -45.0532 -45.0390 -44.9802 -44.9668 -44.9566 -44.9527 -44.9451 -44.9311
   -44.9309 -44.9171 -44.8826 -44.8811 -44.8765 -44.8682 -44.8662 -44.8562
   -44.8552 -44.8414 -44.7836 -44.7691 -44.7659 -44.7513 -44.7505 -44.7359
   -25.2999 -25.2791 -25.2235 -25.2027 -21.5998 -21.4025 -21.2793 -21.2270
   -21.0607 -21.0187 -20.9873 -20.9756 -20.8942 -20.8523 -20.8331 -20.8246
   -20.7648 -20.7563 -20.6889 -20.4449 -20.4307 -20.3522 -20.3384 -20.3338
   -20.3190 -20.2563 -20.1028 -20.0964 -13.0289 -13.0083 -12.9574 -12.9367
   -10.5835 -10.4172 -10.3082 -10.2900  -9.4839  -9.4636  -9.4027  -9.2052
    -9.1699  -9.1569  -8.9564  -8.9428  -8.9327  -8.8920  -8.8152  -8.7982
    -8.5915  -8.5752  -8.4988  -8.4658  -8.4393  -8.4115  -8.3077  -8.3026
    -8.2886  -8.2623  -8.1406  -8.1344  -8.0895  -7.9074  -7.8807  -7.8236
    -7.7616  -7.5610  -7.4884  -7.4360  -7.3556  -7.2353  -7.1995  -7.1894
    -7.1035  -7.0924  -6.8772  -6.7800  -6.7033  -6.6822  -6.5047  -6.4935
    -6.4515  -6.3563  -6.2943  -6.2547  -6.1449  -6.1110  -6.0989  -6.0942
    -5.9670  -5.8935  -5.8168  -5.7596  -5.7239  -5.6525  -5.6084  -5.5403
    -5.4314  -5.3301  -5.1671  -5.0690  -4.9693  -4.9355  -4.8523  -4.7926
    -4.7378  -4.6436  -4.6098  -4.4405  -4.4189  -4.3271  -4.2617  -4.0776
    -3.0563  -2.9441  -2.8716  -2.7177  -2.6510  -2.6421  -2.6239  -2.6043
    -2.4895  -2.4730  -2.4368  -2.3806  -2.3783  -2.3304  -2.2912  -2.2220
    -2.2034  -2.1467  -2.1409  -2.1217  -2.0889  -2.0590  -1.9790  -1.9507
    -1.8131  -1.7408  -1.6621  -1.3113  -1.1746  -1.1316  -0.9622  -0.9382
    -0.8851  -0.8650  -0.7131  -0.6942  -0.5083  -0.4349   0.1843   0.3346
     0.4882   0.6176   0.6406   0.7139   0.7321   0.8631   1.1765   1.5308
     1.5610   1.5691   1.8170   2.0051   2.0100   2.0824   2.0895   2.1257
     2.1785   2.2815   2.3858   2.4702   2.4823   2.7479   2.8756

     the Fermi energy is    -1.7037 ev

!    total energy              =   -3442.59383622 Ry
     estimated scf accuracy    <          4.1E-10 Ry
     smearing contrib. (-TS)   =       0.09057630 Ry
     internal energy E=F+TS    =   -3442.68441251 Ry

     The total energy is F=E-TS. E is the sum of the following terms:
     one-electron contribution =  -24528.44746300 Ry
     hartree contribution      =   12275.98270157 Ry
     xc contribution           =    -453.01135353 Ry
     ewald contribution        =    9365.34518721 Ry
     one-center paw contrib.   =    -266.41389655 Ry
     electrostatic embedding   =      -0.06110984 Ry
     cavitation energy         =       0.02050913 Ry
     PV energy                 =      -0.08704233 Ry
     correction to one-el term =     163.98805482 Ry

     WARNING: you are using the parabolic pbc correction;
              the potential shift above must be added to 
              band and Fermi energies.

     convergence has been achieved in  38 iterations

     negative rho (up, down):  7.214E-05 0.000E+00

     Forces acting on atoms (cartesian axes, Ry/au):

     atom    1 type  1   force =     0.00790418    0.00000000   -0.00787855
     atom    2 type  1   force =     0.00790812    0.00000000   -0.00787953
     atom    3 type  1   force =     0.00108156    0.00000000    0.06300886
     atom    4 type  1   force =     0.00108188    0.00000000    0.06300869
     atom    5 type  2   force =    -0.00038216    0.00000000   -0.00039791
     atom    6 type  2   force =    -0.00038219    0.00000000   -0.00039763
     atom    7 type  1   force =     0.00017595    0.03406768   -0.00154337
     atom    8 type  1   force =     0.00017614    0.03406735   -0.00154344
     atom    9 type  2   force =     0.00075525    0.00000000   -0.00199827
     atom   10 type  2   force =     0.00075482    0.00000000   -0.00199859
     atom   11 type  1   force =     0.00017595   -0.03406768   -0.00154337
     atom   12 type  1   force =     0.00017614   -0.03406735   -0.00154344
     atom   13 type  1   force =    -0.00002788    0.00000000    0.00497898
     atom   14 type  1   force =    -0.00002732    0.00000000    0.00497924
     atom   15 type  1   force =    -0.00083218    0.00000000    0.00401370
     atom   16 type  1   force =    -0.00083193    0.00000000    0.00401412
     atom   17 type  2   force =     0.00005878    0.00000000    0.00000000
     atom   18 type  2   force =     0.00005878    0.00000000    0.00000000
     atom   19 type  1   force =     0.00000798   -0.02625603    0.00000000
     atom   20 type  1   force =     0.00000754   -0.02625597    0.00000000
     atom   21 type  2   force =     0.00092262    0.00000000    0.00000000
     atom   22 type  2   force =     0.00092337    0.00000000    0.00000000
     atom   23 type  1   force =     0.00000798    0.02625603    0.00000000
     atom   24 type  1   force =     0.00000754    0.02625597    0.00000000
     atom   25 type  1   force =    -0.00083218    0.00000000   -0.00401370
     atom   26 type  1   force =    -0.00083193    0.00000000   -0.00401412
     atom   27 type  1   force =    -0.00002788    0.00000000   -0.00497898
     atom   28 type  1   force =    -0.00002732    0.00000000   -0.00497924
     atom   29 type  2   force =    -0.00038216    0.00000000    0.00039791
     atom   30 type  2   force =    -0.00038219    0.00000000    0.00039763
     atom   31 type  1   force =     0.00017595    0.03406768    0.00154337
     atom   32 type  1   force =     0.00017614    0.03406735    0.00154344
     atom   33 type  2   force =     0.00075525    0.00000000    0.00199827
     atom   34 type  2   force =     0.00075482    0.00000000    0.00199859
     atom   35 type  1   force =     0.00017595   -0.03406768    0.00154337
     atom   36 type  1   force =     0.00017614   -0.03406735    0.00154344
     atom   37 type  1   force =     0.00108156    0.00000000   -0.06300886
     atom   38 type  1   force =     0.00108188    0.00000000   -0.06300869
     atom   39 type  1   force =     0.00790418    0.00000000    0.00787855
     atom   40 type  1   force =     0.00790812    0.00000000    0.00787953
     atom   41 type  3   force =    -0.00772543    0.00000000    0.00048284
     atom   42 type  3   force =    -0.00772543    0.00000000   -0.00048284
     atom   43 type  3   force =    -0.00772908    0.00000000    0.00048353
     atom   44 type  3   force =    -0.00772908    0.00000000   -0.00048353
     atom   45 type  3   force =    -0.00081228    0.06576059   -0.03229838
     atom   46 type  3   force =    -0.00081228    0.06576059    0.03229838
     atom   47 type  3   force =    -0.00081228    0.06576052   -0.03229831
     atom   48 type  3   force =    -0.00081228    0.06576052    0.03229831
     atom   49 type  3   force =    -0.00081228   -0.06576059   -0.03229838
     atom   50 type  3   force =    -0.00081228   -0.06576059    0.03229838
     atom   51 type  3   force =    -0.00081228   -0.06576052   -0.03229831
     atom   52 type  3   force =    -0.00081228   -0.06576052    0.03229831
     The non-local contrib.  to forces
     atom    1 type  1   force =     1.67535235    0.00000000    0.27870089
     atom    2 type  1   force =     1.67535253    0.00000000    0.27870322
     atom    3 type  1   force =    -0.03723710    0.00000000   -1.53957001
     atom    4 type  1   force =    -0.03723649    0.00000000   -1.53957032
     atom    5 type  2   force =    -0.00076174    0.00000000    0.03106716
     atom    6 type  2   force =    -0.00076164    0.00000000    0.03106738
     atom    7 type  1   force =    -0.00079648   -0.04045075   -0.02049764
     atom    8 type  1   force =    -0.00079652   -0.04045040   -0.02049804
     atom    9 type  2   force =    -0.00297752    0.00000000    0.04566864
     atom   10 type  2   force =    -0.00297753    0.00000000    0.04566769
     atom   11 type  1   force =    -0.00079648    0.04045075   -0.02049764
     atom   12 type  1   force =    -0.00079652    0.04045040   -0.02049804
     atom   13 type  1   force =    -0.00162846    0.00000000   -0.20889314
     atom   14 type  1   force =    -0.00162891    0.00000000   -0.20889332
     atom   15 type  1   force =    -0.00069214    0.00000000   -0.03165005
     atom   16 type  1   force =    -0.00069154    0.00000000   -0.03164656
     atom   17 type  2   force =    -0.00055120    0.00000000    0.00000000
     atom   18 type  2   force =    -0.00055116    0.00000000    0.00000000
     atom   19 type  1   force =    -0.00067163   -0.00385976    0.00000000
     atom   20 type  1   force =    -0.00067395   -0.00385964    0.00000000
     atom   21 type  2   force =     0.00291569    0.00000000    0.00000000
     atom   22 type  2   force =     0.00291592    0.00000000    0.00000000
     atom   23 type  1   force =    -0.00067163    0.00385976    0.00000000
     atom   24 type  1   force =    -0.00067395    0.00385964    0.00000000
     atom   25 type  1   force =    -0.00069214    0.00000000    0.03165005
     atom   26 type  1   force =    -0.00069154    0.00000000    0.03164656
     atom   27 type  1   force =    -0.00162846    0.00000000    0.20889314
     atom   28 type  1   force =    -0.00162891    0.00000000    0.20889332
     atom   29 type  2   force =    -0.00076174    0.00000000   -0.03106716
     atom   30 type  2   force =    -0.00076164    0.00000000   -0.03106738
     atom   31 type  1   force =    -0.00079648   -0.04045075    0.02049764
     atom   32 type  1   force =    -0.00079652   -0.04045040    0.02049804
     atom   33 type  2   force =    -0.00297752    0.00000000   -0.04566864
     atom   34 type  2   force =    -0.00297753    0.00000000   -0.04566769
     atom   35 type  1   force =    -0.00079648    0.04045075    0.02049764
     atom   36 type  1   force =    -0.00079652    0.04045040    0.02049804
     atom   37 type  1   force =    -0.03723710    0.00000000    1.53957001
     atom   38 type  1   force =    -0.03723649    0.00000000    1.53957032
     atom   39 type  1   force =     1.67535235    0.00000000   -0.27870089
     atom   40 type  1   force =     1.67535253    0.00000000   -0.27870322
     atom   41 type  3   force =    -0.10157590    0.00000000    0.02113500
     atom   42 type  3   force =    -0.10157590    0.00000000   -0.02113500
     atom   43 type  3   force =    -0.10157506    0.00000000    0.02113476
     atom   44 type  3   force =    -0.10157506    0.00000000   -0.02113476
     atom   45 type  3   force =     0.00134931   -0.10086098    0.06988931
     atom   46 type  3   force =     0.00134931   -0.10086098   -0.06988931
     atom   47 type  3   force =     0.00134931   -0.10086095    0.06988931
     atom   48 type  3   force =     0.00134931   -0.10086095   -0.06988931
     atom   49 type  3   force =     0.00134931    0.10086098    0.06988931
     atom   50 type  3   force =     0.00134931    0.10086098   -0.06988931
     atom   51 type  3   force =     0.00134931    0.10086095    0.06988931
     atom   52 type  3   force =     0.00134931    0.10086095   -0.06988931
     The ionic contribution  to forces
     atom    1 type  1   force =    -2.78636273    0.00000014  -91.47351634
     atom    2 type  1   force =    -2.78634635    0.00000014  -91.47353178
     atom    3 type  1   force =     0.07093197   -0.00000022  -86.32206707
     atom    4 type  1   force =     0.07093134   -0.00000022  -86.32206775
     atom    5 type  2   force =    -0.03101192   -0.00000247 -163.76612616
     atom    6 type  2   force =    -0.03100242   -0.00000247 -163.76612554
     atom    7 type  1   force =     0.00194652   -0.64513434  -63.13832004
     atom    8 type  1   force =     0.00195203   -0.64513336  -63.13832013
     atom    9 type  2   force =    -0.12638817    0.00000331 -165.12707091
     atom   10 type  2   force =    -0.12638951    0.00000331 -165.12722242
     atom   11 type  1   force =     0.00194652    0.64513475  -63.13831767
     atom   12 type  1   force =     0.00195203    0.64513377  -63.13831775
     atom   13 type  1   force =     0.00280589   -0.00000150  -37.16685414
     atom   14 type  1   force =     0.00280584   -0.00000150  -37.16685698
     atom   15 type  1   force =    -0.01495109    0.00000995  -25.45629718
     atom   16 type  1   force =    -0.01495049    0.00000995  -25.45634898
     atom   17 type  2   force =    -0.02159238    0.00002007   -0.00048130
     atom   18 type  2   force =    -0.02159082    0.00002007   -0.00048130
     atom   19 type  1   force =     0.01055951    0.84833876   -0.00008556
     atom   20 type  1   force =     0.01058790    0.84834048   -0.00008556
     atom   21 type  2   force =     0.02569933    0.00011343   -0.00027227
     atom   22 type  2   force =     0.02571755    0.00011343   -0.00027227
     atom   23 type  1   force =     0.01055955   -0.84849147   -0.00008556
     atom   24 type  1   force =     0.01058794   -0.84849319   -0.00008556
     atom   25 type  1   force =    -0.01495174    0.00000995   25.45611977
     atom   26 type  1   force =    -0.01495115    0.00000995   25.45617157
     atom   27 type  1   force =     0.00280603   -0.00000150   37.16713940
     atom   28 type  1   force =     0.00280598   -0.00000150   37.16714224
     atom   29 type  2   force =    -0.03101125   -0.00000247  163.76646231
     atom   30 type  2   force =    -0.03100175   -0.00000247  163.76646169
     atom   31 type  1   force =     0.00194778   -0.64516183   63.13839100
     atom   32 type  1   force =     0.00195329   -0.64516084   63.13839109
     atom   33 type  2   force =    -0.12639479    0.00000331  165.12722184
     atom   34 type  2   force =    -0.12639613    0.00000331  165.12737336
     atom   35 type  1   force =     0.00194778    0.64516224   63.13838862
     atom   36 type  1   force =     0.00195329    0.64516125   63.13838871
     atom   37 type  1   force =     0.07093724   -0.00000022   86.32202786
     atom   38 type  1   force =     0.07093660   -0.00000022   86.32202855
     atom   39 type  1   force =    -2.78640811    0.00000014   91.47366363
     atom   40 type  1   force =    -2.78639174    0.00000014   91.47367907
     atom   41 type  3   force =     2.95435026    0.00000002  -15.45761245
     atom   42 type  3   force =     2.95439994    0.00000002   15.45759850
     atom   43 type  3   force =     2.95433592    0.00000002  -15.45760726
     atom   44 type  3   force =     2.95438560    0.00000002   15.45759331
     atom   45 type  3   force =    -0.04295503    2.68108328  -16.65071776
     atom   46 type  3   force =    -0.04295807    2.68133189   16.65076461
     atom   47 type  3   force =    -0.04295471    2.68108233  -16.65071788
     atom   48 type  3   force =    -0.04295775    2.68133094   16.65076473
     atom   49 type  3   force =    -0.04295503   -2.68108331  -16.65071773
     atom   50 type  3   force =    -0.04295807   -2.68133192   16.65076458
     atom   51 type  3   force =    -0.04295471   -2.68108236  -16.65071785
     atom   52 type  3   force =    -0.04295775   -2.68133097   16.65076470
     The local contribution  to forces
     atom    1 type  1   force =     1.12553015    0.00000000   91.09157263
     atom    2 type  1   force =     1.12551618    0.00000000   91.09158600
     atom    3 type  1   force =    -0.03309505    0.00000000   87.98714490
     atom    4 type  1   force =    -0.03309919   -0.00000000   87.98714592
     atom    5 type  2   force =     0.03152167    0.00000000  163.76945932
     atom    6 type  2   force =     0.03151163    0.00000000  163.76945925
     atom    7 type  1   force =    -0.00078267    0.73459463   63.14966636
     atom    8 type  1   force =    -0.00079063    0.73459661   63.14966651
     atom    9 type  2   force =     0.12951427   -0.00000000  165.03735330
     atom   10 type  2   force =     0.12950811    0.00000000  165.03750720
     atom   11 type  1   force =    -0.00078267   -0.73459463   63.14966636
     atom   12 type  1   force =    -0.00079063   -0.73459661   63.14966651
     atom   13 type  1   force =    -0.00123131    0.00000000   37.38146970
     atom   14 type  1   force =    -0.00123673   -0.00000000   37.38146913
     atom   15 type  1   force =     0.01479431    0.00000000   25.48882704
     atom   16 type  1   force =     0.01479034   -0.00000000   25.48887426
     atom   17 type  2   force =     0.02220496    0.00000000   -0.00578781
     atom   18 type  2   force =     0.02219731    0.00000000   -0.00578781
     atom   19 type  1   force =    -0.00988631   -0.87038736   -0.00242500
     atom   20 type  1   force =    -0.00990723   -0.87038974   -0.00242500
     atom   21 type  2   force =    -0.02768739   -0.00000000   -0.00597692
     atom   22 type  2   force =    -0.02770976    0.00000000   -0.00597692
     atom   23 type  1   force =    -0.00988634    0.87002474   -0.00242500
     atom   24 type  1   force =    -0.00990726    0.87002712   -0.00242500
     atom   25 type  1   force =     0.01479343    0.00000000  -25.49055828
     atom   26 type  1   force =     0.01478946   -0.00000000  -25.49060550
     atom   27 type  1   force =    -0.00123101   -0.00000000  -37.38323075
     atom   28 type  1   force =    -0.00123643   -0.00000000  -37.38323018
     atom   29 type  2   force =     0.03152242   -0.00000000 -163.77540606
     atom   30 type  2   force =     0.03151237    0.00000000 -163.77540599
     atom   31 type  1   force =    -0.00078416    0.73462114  -63.15207821
     atom   32 type  1   force =    -0.00079213    0.73462312  -63.15207835
     atom   33 type  2   force =     0.12952338   -0.00000000 -165.04314055
     atom   34 type  2   force =     0.12951722    0.00000000 -165.04329445
     atom   35 type  1   force =    -0.00078416   -0.73462114  -63.15207821
     atom   36 type  1   force =    -0.00079213   -0.73462312  -63.15207835
     atom   37 type  1   force =    -0.03309594    0.00000000  -87.99080258
     atom   38 type  1   force =    -0.03310008   -0.00000000  -87.99080361
     atom   39 type  1   force =     1.12554374    0.00000000  -91.09317701
     atom   40 type  1   force =     1.12552977   -0.00000000  -91.09319037
     atom   41 type  3   force =    -2.85949991    0.00000000   15.42047792
     atom   42 type  3   force =    -2.85949991   -0.00000000  -15.42047792
     atom   43 type  3   force =    -2.85949026   -0.00000000   15.42047365
     atom   44 type  3   force =    -2.85949026    0.00000000  -15.42047365
     atom   45 type  3   force =     0.04054686   -2.50082150   16.56744524
     atom   46 type  3   force =     0.04054686   -2.50082150  -16.56744524
     atom   47 type  3   force =     0.04054618   -2.50082059   16.56744542
     atom   48 type  3   force =     0.04054618   -2.50082059  -16.56744542
     atom   49 type  3   force =     0.04054686    2.50082150   16.56744524
     atom   50 type  3   force =     0.04054686    2.50082150  -16.56744524
     atom   51 type  3   force =     0.04054618    2.50082059   16.56744542
     atom   52 type  3   force =     0.04054618    2.50082059  -16.56744542
     The core correction contribution to forces
     atom    1 type  1   force =    -0.01662880   -0.00000000   -0.00304583
     atom    2 type  1   force =    -0.01662885   -0.00000000   -0.00304585
     atom    3 type  1   force =     0.00033709    0.00000000    0.01346030
     atom    4 type  1   force =     0.00033708    0.00000000    0.01346031
     atom    5 type  2   force =     0.00000000    0.00000000    0.00000000
     atom    6 type  2   force =     0.00000000    0.00000000    0.00000000
     atom    7 type  1   force =     0.00002326   -0.00014704    0.00036804
     atom    8 type  1   force =     0.00002326   -0.00014705    0.00036805
     atom    9 type  2   force =     0.00000000    0.00000000    0.00000000
     atom   10 type  2   force =     0.00000000    0.00000000    0.00000000
     atom   11 type  1   force =     0.00002326    0.00014704    0.00036804
     atom   12 type  1   force =     0.00002326    0.00014705    0.00036805
     atom   13 type  1   force =     0.00002230    0.00000000    0.00285946
     atom   14 type  1   force =     0.00002232   -0.00000000    0.00285947
     atom   15 type  1   force =     0.00001494   -0.00000000    0.00017667
     atom   16 type  1   force =     0.00001494   -0.00000000    0.00017662
     atom   17 type  2   force =     0.00000000    0.00000000    0.00000000
     atom   18 type  2   force =     0.00000000    0.00000000    0.00000000
     atom   19 type  1   force =     0.00000486    0.00056340   -0.00000198
     atom   20 type  1   force =     0.00000487    0.00056340   -0.00000198
     atom   21 type  2   force =     0.00000000    0.00000000    0.00000000
     atom   22 type  2   force =     0.00000000    0.00000000    0.00000000
     atom   23 type  1   force =     0.00000486   -0.00056399   -0.00000198
     atom   24 type  1   force =     0.00000487   -0.00056399   -0.00000198
     atom   25 type  1   force =     0.00001494    0.00000000   -0.00017895
     atom   26 type  1   force =     0.00001493   -0.00000000   -0.00017890
     atom   27 type  1   force =     0.00002231   -0.00000000   -0.00286155
     atom   28 type  1   force =     0.00002232    0.00000000   -0.00286155
     atom   29 type  2   force =     0.00000000    0.00000000    0.00000000
     atom   30 type  2   force =     0.00000000    0.00000000    0.00000000
     atom   31 type  1   force =     0.00002326   -0.00014686   -0.00037013
     atom   32 type  1   force =     0.00002327   -0.00014687   -0.00037014
     atom   33 type  2   force =     0.00000000    0.00000000    0.00000000
     atom   34 type  2   force =     0.00000000    0.00000000    0.00000000
     atom   35 type  1   force =     0.00002326    0.00014686   -0.00037013
     atom   36 type  1   force =     0.00002327    0.00014687   -0.00037014
     atom   37 type  1   force =     0.00033714    0.00000000   -0.01346450
     atom   38 type  1   force =     0.00033713    0.00000000   -0.01346451
     atom   39 type  1   force =    -0.01662948   -0.00000000    0.00304370
     atom   40 type  1   force =    -0.01662953   -0.00000000    0.00304372
     atom   41 type  3   force =     0.00000000    0.00000000    0.00000000
     atom   42 type  3   force =     0.00000000    0.00000000    0.00000000
     atom   43 type  3   force =     0.00000000    0.00000000    0.00000000
     atom   44 type  3   force =     0.00000000    0.00000000    0.00000000
     atom   45 type  3   force =     0.00000000    0.00000000    0.00000000
     atom   46 type  3   force =     0.00000000    0.00000000    0.00000000
     atom   47 type  3   force =     0.00000000    0.00000000    0.00000000
     atom   48 type  3   force =     0.00000000    0.00000000    0.00000000
     atom   49 type  3   force =     0.00000000    0.00000000    0.00000000
     atom   50 type  3   force =     0.00000000    0.00000000    0.00000000
     atom   51 type  3   force =     0.00000000    0.00000000    0.00000000
     atom   52 type  3   force =     0.00000000    0.00000000    0.00000000
     The Hubbard contrib.    to forces
     atom    1 type  1   force =     0.00000000    0.00000000    0.00000000
     atom    2 type  1   force =     0.00000000    0.00000000    0.00000000
     atom    3 type  1   force =     0.00000000    0.00000000    0.00000000
     atom    4 type  1   force =     0.00000000    0.00000000    0.00000000
     atom    5 type  2   force =     0.00000000    0.00000000    0.00000000
     atom    6 type  2   force =     0.00000000    0.00000000    0.00000000
     atom    7 type  1   force =     0.00000000    0.00000000    0.00000000
     atom    8 type  1   force =     0.00000000    0.00000000    0.00000000
     atom    9 type  2   force =     0.00000000    0.00000000    0.00000000
     atom   10 type  2   force =     0.00000000    0.00000000    0.00000000
     atom   11 type  1   force =     0.00000000    0.00000000    0.00000000
     atom   12 type  1   force =     0.00000000    0.00000000    0.00000000
     atom   13 type  1   force =     0.00000000    0.00000000    0.00000000
     atom   14 type  1   force =     0.00000000    0.00000000    0.00000000
     atom   15 type  1   force =     0.00000000    0.00000000    0.00000000
     atom   16 type  1   force =     0.00000000    0.00000000    0.00000000
     atom   17 type  2   force =     0.00000000    0.00000000    0.00000000
     atom   18 type  2   force =     0.00000000    0.00000000    0.00000000
     atom   19 type  1   force =     0.00000000    0.00000000    0.00000000
     atom   20 type  1   force =     0.00000000    0.00000000    0.00000000
     atom   21 type  2   force =     0.00000000    0.00000000    0.00000000
     atom   22 type  2   force =     0.00000000    0.00000000    0.00000000
     atom   23 type  1   force =     0.00000000    0.00000000    0.00000000
     atom   24 type  1   force =     0.00000000    0.00000000    0.00000000
     atom   25 type  1   force =     0.00000000    0.00000000    0.00000000
     atom   26 type  1   force =     0.00000000    0.00000000    0.00000000
     atom   27 type  1   force =     0.00000000    0.00000000    0.00000000
     atom   28 type  1   force =     0.00000000    0.00000000    0.00000000
     atom   29 type  2   force =     0.00000000    0.00000000    0.00000000
     atom   30 type  2   force =     0.00000000    0.00000000    0.00000000
     atom   31 type  1   force =     0.00000000    0.00000000    0.00000000
     atom   32 type  1   force =     0.00000000    0.00000000    0.00000000
     atom   33 type  2   force =     0.00000000    0.00000000    0.00000000
     atom   34 type  2   force =     0.00000000    0.00000000    0.00000000
     atom   35 type  1   force =     0.00000000    0.00000000    0.00000000
     atom   36 type  1   force =     0.00000000    0.00000000    0.00000000
     atom   37 type  1   force =     0.00000000    0.00000000    0.00000000
     atom   38 type  1   force =     0.00000000    0.00000000    0.00000000
     atom   39 type  1   force =     0.00000000    0.00000000    0.00000000
     atom   40 type  1   force =     0.00000000    0.00000000    0.00000000
     atom   41 type  3   force =     0.00000000    0.00000000    0.00000000
     atom   42 type  3   force =     0.00000000    0.00000000    0.00000000
     atom   43 type  3   force =     0.00000000    0.00000000    0.00000000
     atom   44 type  3   force =     0.00000000    0.00000000    0.00000000
     atom   45 type  3   force =     0.00000000    0.00000000    0.00000000
     atom   46 type  3   force =     0.00000000    0.00000000    0.00000000
     atom   47 type  3   force =     0.00000000    0.00000000    0.00000000
     atom   48 type  3   force =     0.00000000    0.00000000    0.00000000
     atom   49 type  3   force =     0.00000000    0.00000000    0.00000000
     atom   50 type  3   force =     0.00000000    0.00000000    0.00000000
     atom   51 type  3   force =     0.00000000    0.00000000    0.00000000
     atom   52 type  3   force =     0.00000000    0.00000000    0.00000000
     The SCF correction term to forces
     atom    1 type  1   force =     0.00000221   -0.00000001   -0.00000205
     atom    2 type  1   force =     0.00000350   -0.00000001   -0.00000339
     atom    3 type  1   force =    -0.00000229    0.00000002    0.00000316
     atom    4 type  1   force =     0.00000224    0.00000002    0.00000282
     atom    5 type  2   force =    -0.00000014    0.00000009    0.00003856
     atom    6 type  2   force =     0.00000020    0.00000009    0.00003808
     atom    7 type  1   force =    -0.00000144   -0.00000089    0.00001283
     atom    8 type  1   force =     0.00000122   -0.00000454    0.00001312
     atom    9 type  2   force =    -0.00000333   -0.00000009    0.00003181
     atom   10 type  2   force =     0.00000372   -0.00000009    0.00002994
     atom   11 type  1   force =    -0.00000144    0.00000087    0.00001282
     atom   12 type  1   force =     0.00000122    0.00000452    0.00001310
     atom   13 type  1   force =    -0.00000323    0.00000004    0.00001682
     atom   14 type  1   force =     0.00000323    0.00000004    0.00002066
     atom   15 type  1   force =    -0.00000148   -0.00000004    0.00001718
     atom   16 type  1   force =     0.00000154   -0.00000004    0.00001873
     atom   17 type  2   force =    -0.00000311    0.00000013    0.00000495
     atom   18 type  2   force =     0.00000294    0.00000013    0.00000495
     atom   19 type  1   force =     0.00000280   -0.00000051    0.00000175
     atom   20 type  1   force =    -0.00000281    0.00000010    0.00000175
     atom   21 type  2   force =    -0.00000225   -0.00000013    0.00000460
     atom   22 type  2   force =     0.00000242   -0.00000013    0.00000460
     atom   23 type  1   force =     0.00000280    0.00000055    0.00000175
     atom   24 type  1   force =    -0.00000281   -0.00000006    0.00000175
     atom   25 type  1   force =    -0.00000148   -0.00000004   -0.00001524
     atom   26 type  1   force =     0.00000154   -0.00000004   -0.00001679
     atom   27 type  1   force =    -0.00000323    0.00000004   -0.00001655
     atom   28 type  1   force =     0.00000323    0.00000004   -0.00002039
     atom   29 type  2   force =    -0.00000014    0.00000009   -0.00004638
     atom   30 type  2   force =     0.00000021    0.00000009   -0.00004589
     atom   31 type  1   force =    -0.00000144   -0.00000113   -0.00001583
     atom   32 type  1   force =     0.00000123   -0.00000478   -0.00001611
     atom   33 type  2   force =    -0.00000334   -0.00000009   -0.00003995
     atom   34 type  2   force =     0.00000370   -0.00000009   -0.00003808
     atom   35 type  1   force =    -0.00000144    0.00000111   -0.00001581
     atom   36 type  1   force =     0.00000123    0.00000476   -0.00001609
     atom   37 type  1   force =    -0.00000229    0.00000002   -0.00000630
     atom   38 type  1   force =     0.00000224    0.00000002   -0.00000596
     atom   39 type  1   force =     0.00000213   -0.00000001   -0.00000015
     atom   40 type  1   force =     0.00000342   -0.00000001    0.00000119
     atom   41 type  3   force =    -0.00000019   -0.00000000   -0.00000010
     atom   42 type  3   force =    -0.00000010   -0.00000000   -0.00000015
     atom   43 type  3   force =    -0.00000002   -0.00000000   -0.00000010
     atom   44 type  3   force =     0.00000006   -0.00000000   -0.00000016
     atom   45 type  3   force =    -0.00000018    0.00000026    0.00000024
     atom   46 type  3   force =    -0.00000018    0.00000030   -0.00000051
     atom   47 type  3   force =     0.00000020    0.00000021    0.00000021
     atom   48 type  3   force =     0.00000019    0.00000024   -0.00000048
     atom   49 type  3   force =    -0.00000018   -0.00000026    0.00000024
     atom   50 type  3   force =    -0.00000018   -0.00000030   -0.00000051
     atom   51 type  3   force =     0.00000020   -0.00000020    0.00000020
     atom   52 type  3   force =     0.00000019   -0.00000024   -0.00000047

     Total force =     0.267990     Total SCF correction =     0.000130

     BFGS Geometry Optimization
     Energy error            =      0.0E+00 Ry
     Gradient error          =      6.6E-02 Ry/Bohr

     number of scf cycles    =   1
     number of bfgs steps    =   0

     energy             new  =   -3442.5938362156 Ry

     new trust radius        =       0.0732686832 bohr
     new conv_thr            =       0.0000000010 Ry


ATOMIC_POSITIONS (crystal)
O             0.0021021158        0.5000000000        0.2631227147
O             0.5021023326        0.5000000000        0.2631226368
O            -0.0031418367        0.0000000000        0.2881642981
O             0.4968581947        0.0000000000        0.2881642916
Ru            0.2471201562        0.0000000000        0.3597860300
Ru            0.7471201426        0.0000000000        0.3597860371
O             0.2475954710        0.3061897006        0.3548868252
O             0.7475955354        0.3061896532        0.3548868257
Ru           -0.0028514789        0.5000000000        0.3563724722
Ru            0.4971485164        0.5000000000        0.3563723677
O             0.2475954710        0.6938102994        0.3548868252
O             0.7475955354        0.6938103468        0.3548868257
O            -0.0028164526        0.0000000000        0.4125847953
O             0.4971835912        0.0000000000        0.4125847977
O            -0.0031012591        0.5000000000        0.4439419615
O             0.4968987495        0.5000000000        0.4439417948
Ru           -0.0030250329        0.0000000000        0.5000010000
Ru            0.4969749509        0.0000000000        0.5000010000
O             0.2469051880        0.1925836534        0.5000010000
O             0.7469050396        0.1925836411        0.5000010000
Ru            0.2468759202        0.5000000000        0.5000010000
Ru            0.7468755149        0.5000000000        0.5000010000
O             0.2469051880        0.8074173466        0.5000010000
O             0.7469050396        0.8074173589        0.5000010000
O            -0.0031012591        0.5000000000        0.5560590385
O             0.4968987495        0.5000000000        0.5560592052
O            -0.0028164526        0.0000000000        0.5874162047
O             0.4971835912        0.0000000000        0.5874162023
Ru            0.2471201562        0.0000000000        0.6402149700
Ru            0.7471201426        0.0000000000        0.6402149629
O             0.2475954710        0.3061897006        0.6451141748
O             0.7475955354        0.3061896532        0.6451141743
Ru           -0.0028514789        0.5000000000        0.6436285278
Ru            0.4971485164        0.5000000000        0.6436286323
O             0.2475954710        0.6938102994        0.6451141748
O             0.7475955354        0.6938103468        0.6451141743
O            -0.0031418367        0.0000000000        0.7118377019
O             0.4968581947        0.0000000000        0.7118377084
O             0.0021021158        0.5000000000        0.7368782853
O             0.5021023326        0.5000000000        0.7368783632
H             0.1510485557        0.5000000000        0.2542234443
H             0.1510485557        0.5000000000        0.7457765557
H             0.6510485038        0.5000000000        0.2542234071
H             0.6510485038        0.5000000000        0.7457765929
H            -0.0048731941        0.1290514161        0.2607586358
H            -0.0048731941        0.1290514161        0.7392413642
H             0.4951268202        0.1290514069        0.2607586298
H             0.4951268202        0.1290514069        0.7392413702
H            -0.0048731941        0.8709485839        0.2607586358
H            -0.0048731941        0.8709485839        0.7392413642
H             0.4951268202        0.8709485931        0.2607586298
H             0.4951268202        0.8709485931        0.7392413702



     Writing config-only to output data dir /storage/home/mgm6007/ixd4/Maria/Strain0_Files/RuO2-110-0-012345/RuO2-110-0-012345.save/
     NEW-OLD atomic charge density approx. for the potential

     Check: negative core charge=   -0.000001

     negative rho (up, down):  7.097E-05 0.000E+00

     add environment contribution to local potential
     Polarization accuracy = 8.4E-12, # of iterations =  35

     total cpu time spent up to now is    12956.2 secs

     per-process dynamical memory:   213.2 Mb

     Self-consistent Calculation

     iteration #  1     ecut=    50.00 Ry     beta= 0.70
     Davidson diagonalization with overlap
     ethr =  1.00E-06,  avg # of iterations = 10.0

     negative rho (up, down):  1.576E-04 0.000E+00

     add environment contribution to local potential
     Polarization accuracy = 2.8E-12, # of iterations =  36

     total cpu time spent up to now is    13245.4 secs

     total energy              =   -3442.61204601 Ry
     estimated scf accuracy    <       0.02691136 Ry
     electrostatic embedding   =      -0.05930751 Ry
     cavitation energy         =       0.02039603 Ry
     PV energy                 =      -0.08721168 Ry
     correction to one-el term =     164.05828697 Ry

     iteration #  2     ecut=    50.00 Ry     beta= 0.70
     Davidson diagonalization with overlap
     ethr =  7.23E-06,  avg # of iterations =  2.0

     negative rho (up, down):  1.239E-04 0.000E+00

     add environment contribution to local potential
     Polarization accuracy = 8.6E-12, # of iterations =  36

     total cpu time spent up to now is    13597.2 secs

     total energy              =   -3442.61389303 Ry
     estimated scf accuracy    <       0.01538029 Ry
     electrostatic embedding   =      -0.05835040 Ry
     cavitation energy         =       0.02045006 Ry
     PV energy                 =      -0.08718284 Ry
     correction to one-el term =     164.40756102 Ry

     iteration #  3     ecut=    50.00 Ry     beta= 0.70
     Davidson diagonalization with overlap
     ethr =  4.13E-06,  avg # of iterations =  1.0

     negative rho (up, down):  6.657E-05 0.000E+00

     add environment contribution to local potential
     Polarization accuracy = 1.9E-12, # of iterations =  36

     total cpu time spent up to now is    13877.4 secs

     total energy              =   -3442.61463900 Ry
     estimated scf accuracy    <       0.00513372 Ry
     electrostatic embedding   =      -0.05824735 Ry
     cavitation energy         =       0.02044331 Ry
     PV energy                 =      -0.08720341 Ry
     correction to one-el term =     164.41143815 Ry

     iteration #  4     ecut=    50.00 Ry     beta= 0.70
     Davidson diagonalization with overlap
     ethr =  1.38E-06,  avg # of iterations =  2.0

     negative rho (up, down):  3.408E-05 0.000E+00

     add environment contribution to local potential
     Polarization accuracy = 2.0E-12, # of iterations =  36

     total cpu time spent up to now is    14186.5 secs

     total energy              =   -3442.61476977 Ry
     estimated scf accuracy    <       0.00221551 Ry
     electrostatic embedding   =      -0.05821946 Ry
     cavitation energy         =       0.02043438 Ry
     PV energy                 =      -0.08723159 Ry
     correction to one-el term =     164.36543644 Ry

     iteration #  5     ecut=    50.00 Ry     beta= 0.70
     Davidson diagonalization with overlap
     ethr =  5.96E-07,  avg # of iterations =  2.0

     negative rho (up, down):  9.993E-06 0.000E+00

     add environment contribution to local potential
     Polarization accuracy = 6.9E-12, # of iterations =  35

     total cpu time spent up to now is    14534.8 secs

     total energy              =   -3442.61486598 Ry
     estimated scf accuracy    <       0.00080982 Ry
     electrostatic embedding   =      -0.05828594 Ry
     cavitation energy         =       0.02042823 Ry
     PV energy                 =      -0.08724866 Ry
     correction to one-el term =     164.29991041 Ry

     iteration #  6     ecut=    50.00 Ry     beta= 0.70
     Davidson diagonalization with overlap
     ethr =  2.18E-07,  avg # of iterations =  2.0

     negative rho (up, down):  4.951E-06 0.000E+00

     add environment contribution to local potential
     Polarization accuracy = 3.5E-12, # of iterations =  35

     total cpu time spent up to now is    14853.5 secs

     total energy              =   -3442.61486355 Ry
     estimated scf accuracy    <       0.00030495 Ry
     electrostatic embedding   =      -0.05846118 Ry
     cavitation energy         =       0.02042179 Ry
     PV energy                 =      -0.08726432 Ry
     correction to one-el term =     164.16487137 Ry

     iteration #  7     ecut=    50.00 Ry     beta= 0.70
     Davidson diagonalization with overlap
     ethr =  8.20E-08,  avg # of iterations =  1.0

     negative rho (up, down):  1.183E-06 0.000E+00

     add environment contribution to local potential
     Polarization accuracy = 3.3E-12, # of iterations =  35

     total cpu time spent up to now is    15162.1 secs

     total energy              =   -3442.61485233 Ry
     estimated scf accuracy    <       0.00032266 Ry
     electrostatic embedding   =      -0.05860527 Ry
     cavitation energy         =       0.02042066 Ry
     PV energy                 =      -0.08726673 Ry
     correction to one-el term =     164.07081099 Ry

     iteration #  8     ecut=    50.00 Ry     beta= 0.70
     Davidson diagonalization with overlap
     ethr =  8.20E-08,  avg # of iterations =  3.0

     negative rho (up, down):  1.002E-06 0.000E+00

     add environment contribution to local potential
     Polarization accuracy = 3.7E-12, # of iterations =  35

     total cpu time spent up to now is    15410.6 secs

     total energy              =   -3442.61486068 Ry
     estimated scf accuracy    <       0.00002271 Ry
     electrostatic embedding   =      -0.05907163 Ry
     cavitation energy         =       0.02042482 Ry
     PV energy                 =      -0.08725722 Ry
     correction to one-el term =     163.78881672 Ry

     iteration #  9     ecut=    50.00 Ry     beta= 0.70
     Davidson diagonalization with overlap
     ethr =  6.11E-09,  avg # of iterations =  2.0

     negative rho (up, down):  2.300E-06 0.000E+00

     add environment contribution to local potential
     Polarization accuracy = 5.4E-12, # of iterations =  35

     total cpu time spent up to now is    15724.2 secs

     total energy              =   -3442.61486362 Ry
     estimated scf accuracy    <       0.00000487 Ry
     electrostatic embedding   =      -0.05922860 Ry
     cavitation energy         =       0.02043049 Ry
     PV energy                 =      -0.08724706 Ry
     correction to one-el term =     163.69258768 Ry

     iteration # 10     ecut=    50.00 Ry     beta= 0.70
     Davidson diagonalization with overlap
     ethr =  1.31E-09,  avg # of iterations =  4.0

     negative rho (up, down):  3.525E-06 0.000E+00

     add environment contribution to local potential
     Polarization accuracy = 1.8E-12, # of iterations =  37

     total cpu time spent up to now is    16081.1 secs

     total energy              =   -3442.61486478 Ry
     estimated scf accuracy    <       0.00000295 Ry
     electrostatic embedding   =      -0.05925427 Ry
     cavitation energy         =       0.02043745 Ry
[...]
     atom   35 type  1   force =    -0.03222980   -1.67123167  -62.94695741
     atom   36 type  1   force =    -0.03223088   -1.67122357  -62.94699058
     atom   37 type  1   force =    -0.06004039   -0.00000000  -87.98924191
     atom   38 type  1   force =    -0.06006596    0.00000000  -87.98924443
     atom   39 type  1   force =     1.15634803    0.00000000  -90.57044650
     atom   40 type  1   force =     1.15609830   -0.00000000  -90.57054446
     atom   41 type  3   force =    -2.87195021   -0.00000000   15.38175914
     atom   42 type  3   force =    -2.87195021   -0.00000000  -15.38175914
     atom   43 type  3   force =    -2.87176873    0.00000000   15.38170846
     atom   44 type  3   force =    -2.87176873   -0.00000000  -15.38170846
     atom   45 type  3   force =     0.05425010   -2.31535734   16.28818496
     atom   46 type  3   force =     0.05425010   -2.31535734  -16.28818496
     atom   47 type  3   force =     0.05424300   -2.31535800   16.28818593
     atom   48 type  3   force =     0.05424300   -2.31535800  -16.28818593
     atom   49 type  3   force =     0.05425010    2.31535734   16.28818496
     atom   50 type  3   force =     0.05425010    2.31535734  -16.28818496
     atom   51 type  3   force =     0.05424300    2.31535800   16.28818593
     atom   52 type  3   force =     0.05424300    2.31535800  -16.28818593
     The core correction contribution to forces
     atom    1 type  1   force =    -0.01661350    0.00000000   -0.00300748
     atom    2 type  1   force =    -0.01661436   -0.00000000   -0.00300739
     atom    3 type  1   force =     0.00055579    0.00000000    0.01371312
     atom    4 type  1   force =     0.00055578    0.00000000    0.01371312
     atom    5 type  2   force =     0.00000000    0.00000000    0.00000000
     atom    6 type  2   force =     0.00000000    0.00000000    0.00000000
     atom    7 type  1   force =     0.00010619    0.00036256    0.00025304
     atom    8 type  1   force =     0.00010619    0.00036254    0.00025307
     atom    9 type  2   force =     0.00000000    0.00000000    0.00000000
     atom   10 type  2   force =     0.00000000    0.00000000    0.00000000
     atom   11 type  1   force =     0.00010619   -0.00036256    0.00025304
     atom   12 type  1   force =     0.00010619   -0.00036254    0.00025307
     atom   13 type  1   force =     0.00001725   -0.00000000    0.00272294
     atom   14 type  1   force =     0.00001725   -0.00000000    0.00272294
     atom   15 type  1   force =     0.00000090   -0.00000000    0.00019539
     atom   16 type  1   force =     0.00000089   -0.00000000    0.00019535
     atom   17 type  2   force =     0.00000000    0.00000000    0.00000000
     atom   18 type  2   force =     0.00000000    0.00000000    0.00000000
     atom   19 type  1   force =    -0.00002085    0.00012755   -0.00000194
     atom   20 type  1   force =    -0.00002085    0.00012755   -0.00000194
     atom   21 type  2   force =     0.00000000    0.00000000    0.00000000
     atom   22 type  2   force =     0.00000000    0.00000000    0.00000000
     atom   23 type  1   force =    -0.00002085   -0.00012816   -0.00000194
     atom   24 type  1   force =    -0.00002085   -0.00012816   -0.00000194
     atom   25 type  1   force =     0.00000089   -0.00000000   -0.00019776
     atom   26 type  1   force =     0.00000088    0.00000000   -0.00019772
     atom   27 type  1   force =     0.00001726   -0.00000000   -0.00272504
     atom   28 type  1   force =     0.00001726   -0.00000000   -0.00272504
     atom   29 type  2   force =     0.00000000    0.00000000    0.00000000
     atom   30 type  2   force =     0.00000000    0.00000000    0.00000000
     atom   31 type  1   force =     0.00010619    0.00036273   -0.00025510
     atom   32 type  1   force =     0.00010619    0.00036271   -0.00025514
     atom   33 type  2   force =     0.00000000    0.00000000    0.00000000
     atom   34 type  2   force =     0.00000000    0.00000000    0.00000000
     atom   35 type  1   force =     0.00010619   -0.00036273   -0.00025510
     atom   36 type  1   force =     0.00010619   -0.00036271   -0.00025514
     atom   37 type  1   force =     0.00055588    0.00000000   -0.01371737
     atom   38 type  1   force =     0.00055587   -0.00000000   -0.01371737
     atom   39 type  1   force =    -0.01661419   -0.00000000    0.00300532
     atom   40 type  1   force =    -0.01661504    0.00000000    0.00300524
     atom   41 type  3   force =     0.00000000    0.00000000    0.00000000
     atom   42 type  3   force =     0.00000000    0.00000000    0.00000000
     atom   43 type  3   force =     0.00000000    0.00000000    0.00000000
     atom   44 type  3   force =     0.00000000    0.00000000    0.00000000
     atom   45 type  3   force =     0.00000000    0.00000000    0.00000000
     atom   46 type  3   force =     0.00000000    0.00000000    0.00000000
     atom   47 type  3   force =     0.00000000    0.00000000    0.00000000
     atom   48 type  3   force =     0.00000000    0.00000000    0.00000000
     atom   49 type  3   force =     0.00000000    0.00000000    0.00000000
     atom   50 type  3   force =     0.00000000    0.00000000    0.00000000
     atom   51 type  3   force =     0.00000000    0.00000000    0.00000000
     atom   52 type  3   force =     0.00000000    0.00000000    0.00000000
     The Hubbard contrib.    to forces
     atom    1 type  1   force =     0.00000000    0.00000000    0.00000000
     atom    2 type  1   force =     0.00000000    0.00000000    0.00000000
     atom    3 type  1   force =     0.00000000    0.00000000    0.00000000
     atom    4 type  1   force =     0.00000000    0.00000000    0.00000000
     atom    5 type  2   force =     0.00000000    0.00000000    0.00000000
     atom    6 type  2   force =     0.00000000    0.00000000    0.00000000
     atom    7 type  1   force =     0.00000000    0.00000000    0.00000000
     atom    8 type  1   force =     0.00000000    0.00000000    0.00000000
     atom    9 type  2   force =     0.00000000    0.00000000    0.00000000
     atom   10 type  2   force =     0.00000000    0.00000000    0.00000000
     atom   11 type  1   force =     0.00000000    0.00000000    0.00000000
     atom   12 type  1   force =     0.00000000    0.00000000    0.00000000
     atom   13 type  1   force =     0.00000000    0.00000000    0.00000000
     atom   14 type  1   force =     0.00000000    0.00000000    0.00000000
     atom   15 type  1   force =     0.00000000    0.00000000    0.00000000
     atom   16 type  1   force =     0.00000000    0.00000000    0.00000000
     atom   17 type  2   force =     0.00000000    0.00000000    0.00000000
     atom   18 type  2   force =     0.00000000    0.00000000    0.00000000
     atom   19 type  1   force =     0.00000000    0.00000000    0.00000000
     atom   20 type  1   force =     0.00000000    0.00000000    0.00000000
     atom   21 type  2   force =     0.00000000    0.00000000    0.00000000
     atom   22 type  2   force =     0.00000000    0.00000000    0.00000000
     atom   23 type  1   force =     0.00000000    0.00000000    0.00000000
     atom   24 type  1   force =     0.00000000    0.00000000    0.00000000
     atom   25 type  1   force =     0.00000000    0.00000000    0.00000000
     atom   26 type  1   force =     0.00000000    0.00000000    0.00000000
     atom   27 type  1   force =     0.00000000    0.00000000    0.00000000
     atom   28 type  1   force =     0.00000000    0.00000000    0.00000000
     atom   29 type  2   force =     0.00000000    0.00000000    0.00000000
     atom   30 type  2   force =     0.00000000    0.00000000    0.00000000
     atom   31 type  1   force =     0.00000000    0.00000000    0.00000000
     atom   32 type  1   force =     0.00000000    0.00000000    0.00000000
     atom   33 type  2   force =     0.00000000    0.00000000    0.00000000
     atom   34 type  2   force =     0.00000000    0.00000000    0.00000000
     atom   35 type  1   force =     0.00000000    0.00000000    0.00000000
     atom   36 type  1   force =     0.00000000    0.00000000    0.00000000
     atom   37 type  1   force =     0.00000000    0.00000000    0.00000000
     atom   38 type  1   force =     0.00000000    0.00000000    0.00000000
     atom   39 type  1   force =     0.00000000    0.00000000    0.00000000
     atom   40 type  1   force =     0.00000000    0.00000000    0.00000000
     atom   41 type  3   force =     0.00000000    0.00000000    0.00000000
     atom   42 type  3   force =     0.00000000    0.00000000    0.00000000
     atom   43 type  3   force =     0.00000000    0.00000000    0.00000000
     atom   44 type  3   force =     0.00000000    0.00000000    0.00000000
     atom   45 type  3   force =     0.00000000    0.00000000    0.00000000
     atom   46 type  3   force =     0.00000000    0.00000000    0.00000000
     atom   47 type  3   force =     0.00000000    0.00000000    0.00000000
     atom   48 type  3   force =     0.00000000    0.00000000    0.00000000
     atom   49 type  3   force =     0.00000000    0.00000000    0.00000000
     atom   50 type  3   force =     0.00000000    0.00000000    0.00000000
     atom   51 type  3   force =     0.00000000    0.00000000    0.00000000
     atom   52 type  3   force =     0.00000000    0.00000000    0.00000000
     The SCF correction term to forces
     atom    1 type  1   force =    -0.00000034   -0.00000000    0.00000020
     atom    2 type  1   force =    -0.00000051    0.00000000   -0.00000030
     atom    3 type  1   force =     0.00000005   -0.00000000    0.00000129
     atom    4 type  1   force =     0.00000022   -0.00000000    0.00000105
     atom    5 type  2   force =    -0.00000069   -0.00000000    0.00000545
     atom    6 type  2   force =     0.00000002   -0.00000000    0.00000533
     atom    7 type  1   force =    -0.00000039    0.00000093    0.00000150
     atom    8 type  1   force =     0.00000029    0.00000091    0.00000148
     atom    9 type  2   force =    -0.00000057    0.00000000    0.00000338
     atom   10 type  2   force =    -0.00000055    0.00000000    0.00000313
     atom   11 type  1   force =    -0.00000039   -0.00000093    0.00000150
     atom   12 type  1   force =     0.00000029   -0.00000091    0.00000148
     atom   13 type  1   force =     0.00000005   -0.00000000    0.00000293
     atom   14 type  1   force =     0.00000007   -0.00000000    0.00000191
     atom   15 type  1   force =    -0.00000000    0.00000000    0.00000101
     atom   16 type  1   force =    -0.00000007    0.00000000    0.00000116
     atom   17 type  2   force =     0.00000025   -0.00000000   -0.00000001
     atom   18 type  2   force =     0.00000040   -0.00000000   -0.00000001
     atom   19 type  1   force =    -0.00000010   -0.00000003   -0.00000001
     atom   20 type  1   force =     0.00000190   -0.00000011   -0.00000001
     atom   21 type  2   force =    -0.00000058    0.00000000   -0.00000002
     atom   22 type  2   force =     0.00000109    0.00000000   -0.00000002
     atom   23 type  1   force =    -0.00000010    0.00000003   -0.00000001
     atom   24 type  1   force =     0.00000190    0.00000011   -0.00000001
     atom   25 type  1   force =    -0.00000000    0.00000000   -0.00000102
     atom   26 type  1   force =    -0.00000007    0.00000000   -0.00000117
     atom   27 type  1   force =     0.00000005   -0.00000000   -0.00000294
     atom   28 type  1   force =     0.00000008   -0.00000000   -0.00000192
     atom   29 type  2   force =    -0.00000069   -0.00000000   -0.00000547
     atom   30 type  2   force =     0.00000001   -0.00000000   -0.00000535
     atom   31 type  1   force =    -0.00000039    0.00000092   -0.00000150
     atom   32 type  1   force =     0.00000029    0.00000090   -0.00000149
     atom   33 type  2   force =    -0.00000057    0.00000000   -0.00000339
     atom   34 type  2   force =    -0.00000055    0.00000000   -0.00000313
     atom   35 type  1   force =    -0.00000039   -0.00000092   -0.00000150
     atom   36 type  1   force =     0.00000029   -0.00000090   -0.00000149
     atom   37 type  1   force =     0.00000005   -0.00000000   -0.00000129
     atom   38 type  1   force =     0.00000022    0.00000000   -0.00000104
     atom   39 type  1   force =    -0.00000034    0.00000000   -0.00000019
     atom   40 type  1   force =    -0.00000051   -0.00000000    0.00000031
     atom   41 type  3   force =    -0.00000001   -0.00000000    0.00000004
     atom   42 type  3   force =    -0.00000001    0.00000000   -0.00000004
     atom   43 type  3   force =    -0.00000003   -0.00000000    0.00000002
     atom   44 type  3   force =    -0.00000003    0.00000000   -0.00000002
     atom   45 type  3   force =    -0.00000001    0.00000024    0.00000001
     atom   46 type  3   force =    -0.00000001    0.00000024   -0.00000001
     atom   47 type  3   force =    -0.00000000    0.00000022   -0.00000000
     atom   48 type  3   force =    -0.00000000    0.00000022    0.00000000
     atom   49 type  3   force =    -0.00000001   -0.00000024    0.00000001
     atom   50 type  3   force =    -0.00000001   -0.00000024   -0.00000001
     atom   51 type  3   force =    -0.00000000   -0.00000022   -0.00000000
     atom   52 type  3   force =    -0.00000000   -0.00000022    0.00000000

     Total force =     0.000421     Total SCF correction =     0.000015
     Energy error            =      2.5E-07 Ry
     Gradient error          =      7.9E-05 Ry/Bohr

     bfgs converged in  26 scf cycles and  25 bfgs steps
     (criteria: energy <  1.0E-04 Ry, force <  1.0E-04 Ry/Bohr)

     End of BFGS Geometry Optimization

     Final energy             =   -3442.6296070950 Ry

     File /storage/home/mgm6007/ixd4/Maria/Strain0_Files/RuO2-110-0-012345/RuO2-110-0-012345.bfgs deleted, as requested
Begin final coordinates

ATOMIC_POSITIONS (crystal)
O             0.0013752032        0.5000000000        0.2616076275
O             0.5013723595        0.5000000000        0.2616078073
O            -0.0036770089        0.0000000000        0.2864740222
O             0.4963229923        0.0000000000        0.2864740194
Ru            0.2470506791        0.0000000000        0.3594965436
Ru            0.7470506698        0.0000000000        0.3594965441
O             0.2486688124        0.3084386485        0.3542127042
O             0.7486688479        0.3084386410        0.3542127062
Ru           -0.0015261590        0.5000000000        0.3555959054
Ru            0.4984739467        0.5000000000        0.3555958930
O             0.2486688124        0.6915613515        0.3542127042
O             0.7486688479        0.6915613590        0.3542127062
O            -0.0027393454        0.0000000000        0.4122471832
O             0.4972606582        0.0000000000        0.4122471769
O            -0.0026166727        0.5000000000        0.4439779076
O             0.4973832887        0.5000000000        0.4439779038
Ru           -0.0029408076        0.0000000000        0.5000010000
Ru            0.4970591976        0.0000000000        0.5000010000
O             0.2469865289        0.1906927284        0.5000010000
O             0.7469865470        0.1906927160        0.5000010000
Ru            0.2475488853        0.5000000000        0.5000010000
Ru            0.7475488853        0.5000000000        0.5000010000
O             0.2469865289        0.8093082716        0.5000010000
O             0.7469865470        0.8093082840        0.5000010000
O            -0.0026166727        0.5000000000        0.5560230924
O             0.4973832887        0.5000000000        0.5560230962
O            -0.0027393454        0.0000000000        0.5877538168
O             0.4972606582        0.0000000000        0.5877538231
Ru            0.2470506791        0.0000000000        0.6405044564
Ru            0.7470506698        0.0000000000        0.6405044559
O             0.2486688124        0.3084386485        0.6457882958
O             0.7486688479        0.3084386410        0.6457882938
Ru           -0.0015261590        0.5000000000        0.6444050946
Ru            0.4984739467        0.5000000000        0.6444051070
O             0.2486688124        0.6915613515        0.6457882958
O             0.7486688479        0.6915613590        0.6457882938
O            -0.0036770089        0.0000000000        0.7135279778
O             0.4963229923        0.0000000000        0.7135279806
O             0.0013752032        0.5000000000        0.7383933725
O             0.5013723595        0.5000000000        0.7383931927
H             0.1504783528        0.5000000000        0.2519193624
H             0.1504783528        0.5000000000        0.7480806376
H             0.6504809805        0.5000000000        0.2519191982
H             0.6504809805        0.5000000000        0.7480808018
H            -0.0061691030        0.1318887598        0.2616488338
H            -0.0061691030        0.1318887598        0.7383511662
H             0.4938308924        0.1318887541        0.2616488325
H             0.4938308924        0.1318887541        0.7383511675
H            -0.0061691030        0.8681112402        0.2616488338
H            -0.0061691030        0.8681112402        0.7383511662
H             0.4938308924        0.8681112459        0.2616488325
H             0.4938308924        0.8681112459        0.7383511675
End final coordinates



     Writing all to output data dir /storage/home/mgm6007/ixd4/Maria/Strain0_Files/RuO2-110-0-012345/RuO2-110-0-012345.save/
 
     init_run     :    323.70s CPU   1054.31s WALL (       1 calls)
     electrons    :  43195.03s CPU 112885.88s WALL (      26 calls)
     update_pot   :     43.49s CPU     43.56s WALL (      25 calls)
     forces       :     42.34s CPU     43.21s WALL (      26 calls)

     Called by init_run:
     wfcinit      :      0.54s CPU      0.54s WALL (       1 calls)
     potinit      :    247.69s CPU    752.26s WALL (       1 calls)
     hinit0       :     74.96s CPU    300.95s WALL (       1 calls)

     Called by electrons:
     c_bands      :    591.88s CPU    593.51s WALL (     444 calls)
     sum_band     :    138.92s CPU    139.29s WALL (     444 calls)
     v_of_rho     :    122.47s CPU    122.68s WALL (     448 calls)
     newd         :     46.77s CPU     47.76s WALL (     448 calls)
     PAW_pot      :     55.08s CPU     55.15s WALL (     473 calls)
     mix_rho      :    296.81s CPU    297.22s WALL (     444 calls)

     Called by c_bands:
     init_us_2    :      6.69s CPU      6.97s WALL (     914 calls)
     init_us_2:cp :      6.69s CPU      6.96s WALL (     914 calls)
     cegterg      :    569.74s CPU    571.05s WALL (     444 calls)

     Called by *egterg:
     cdiaghg      :     69.50s CPU     69.58s WALL (    1320 calls)
     h_psi        :    300.63s CPU    301.42s WALL (    1368 calls)
     s_psi        :     44.25s CPU     44.35s WALL (    1368 calls)
     g_psi        :      1.37s CPU      1.37s WALL (     923 calls)

     Called by h_psi:
     h_psi:calbec :     45.73s CPU     45.81s WALL (    1368 calls)
     vloc_psi     :    206.52s CPU    207.05s WALL (    1368 calls)
     add_vuspsi   :     45.43s CPU     45.58s WALL (    1368 calls)

     General routines
     calbec       :     72.71s CPU     72.85s WALL (    1941 calls)
     fft          :   9892.79s CPU   9894.26s WALL (    6105 calls)
     ffts         :    107.48s CPU    107.56s WALL (  164834 calls)
     fftw         :    177.24s CPU    177.61s WALL (  520540 calls)
     interpolate  :   9851.49s CPU   9852.92s WALL (     448 calls)
 
     Parallel routines
 
     Environ routines
 
     PWSCF        :     12h44m CPU   1d 9h31m WALL

 
   This run was terminated on:  21: 3:59  22Jul2023            

=------------------------------------------------------------------------------=
   JOB DONE.
=------------------------------------------------------------------------------=
