
     Program PWSCF v.7.2 starts on 14Jul2023 at 10:23: 8 
        Git branch: heads/qe-7.2
        Last git commit: b4c5e8deeb7d1863e7553a87b45f8d22c21926a5
        Last git commit date: Mon Mar 27 16:12:09 2023 +0000
        Last git commit subject: Merge branch 'merge_fix_hubbard' into 'develop'

     This program is part of the open-source Quantum ESPRESSO suite
     for quantum simulation of materials; please cite
         "P. Giannozzi et al., J. Phys.:Condens. Matter 21 395502 (2009);
         "P. Giannozzi et al., J. Phys.:Condens. Matter 29 465901 (2017);
         "P. Giannozzi et al., J. Chem. Phys. 152 154105 (2020);
          URL http://www.quantum-espresso.org", 
     in publications or presentations arising from this work. More details at
     http://www.quantum-espresso.org/quote

     Parallel version (MPI), running on    20 processors

     MPI processes distributed on     1 nodes
     96488 MiB available memory on the printing compute node when the environment starts
 
     Reading input from RuO2-110-0-01.in

     Current dimensions of program PWSCF are:
     Max number of different atomic species (ntypx) = 10
     Max number of k-points (npk) =  40000
     Max angular momentum in pseudopotentials (lmaxx) =  4
 
     Reading input from environ.in:
     * Environ restarting
     * setting up water environment
     * using electronic solvent mode
     * setting boundary derivatives method to SCCS default
     
     file O.pbe-n-kjpaw_psl.0.1.UPF: wavefunction(s)  2P renormalized
     Found identity + ( -0.5000  0.0000  0.0000) symmetry
     This is a supercell, fractional translations are disabled
     Message from routine setup:
     using ibrav=0 with symmetry is DISCOURAGED, use correct ibrav instead
 
     R & G space division:  proc/nbgrp/npool/nimage =      20
     Subspace diagonalization in iterative solution of the eigenvalue problem:
     one sub-group per band group will be used
     scalapack distributed-memory algorithm (size of sub-group:  2*  2 procs)

 
     Parallelization info
     --------------------
     sticks:   dense  smooth     PW     G-vecs:    dense   smooth      PW
     Min         276     110     29                54830    13868    1873
     Max         277     111     30                54841    13883    1882
     Sum        5527    2209    585              1096679   277485   37533
 
     Using Slab Decomposition
 


     bravais-lattice index     =            0
     lattice parameter (alat)  =      12.3893  a.u.
     unit-cell volume          =    5808.5831 (a.u.)^3
     number of atoms/cell      =           44
     number of atomic types    =            3
     number of electrons       =       364.00
     number of Kohn-Sham states=          218
     kinetic-energy cutoff     =      50.0000  Ry
     charge density cutoff     =     500.0000  Ry
     scf convergence threshold =      1.0E-10
     mixing beta               =       0.7000
     number of iterations used =            8  local-TF  mixing
     energy convergence thresh.=      1.0E-05
     force convergence thresh. =      1.0E-05
     Exchange-correlation= PBE
                           (   1   4   3   4   0   0   0)
     nstep                     =          200


     ================================================================================
 
                                  Environ Setup Summary

     ================================================================================
 
     Please cite

          O. Andreussi, I. Dabo and N. Marzari, J. Chem. Phys. 136, 064102 (2012)

     in publications or presentations arising from this work.

     ================================================================================
 
     Parameters
     ==========

     compensation onset threshold      =               0.1000E+00
     static permittivity               =                    78.30
     surface tension in input (dyn/cm) =                    47.90
     surface tension in internal units =               0.6153E-04
     external pressure in input (GPa)  =                    -0.36
     external pressure in inter. units =              -0.2447E-04

     Solvent Boundary
     ================

     solvent mode                      =               electronic
     derivatives method                =                    chain
     numerical core for derivatives    =                      fft
     switching function adopted        =                     SCCS
     density limit for vacuum region   =               0.5000E-02
     density limit for bulk solvent    =               0.1000E-03

     Electrostatic Setup
     ===================

     electrostatic problem to solve    =              generalized
     numerical solver adopted          =                       cg
     type of auxiliary density adopted =                     none
     numerical core for poisson        =                      fft
     type of pbc corrections           =                parabolic
     numerical core for corrections    =                      1da

     ================================================================================
 

     celldm(1)=  12.389316  celldm(2)=   0.000000  celldm(3)=   0.000000
     celldm(4)=   0.000000  celldm(5)=   0.000000  celldm(6)=   0.000000

     crystal axes: (cart. coord. in units of alat)
               a(1) = (   1.000000   0.000000   0.000000 )  
               a(2) = (   0.000000   0.904766   0.000000 )  
               a(3) = (   0.000000   0.000000   3.375918 )  

     reciprocal axes: (cart. coord. in units 2 pi/alat)
               b(1) = (  1.000000  0.000000  0.000000 )  
               b(2) = (  0.000000  1.105258  0.000000 )  
               b(3) = (  0.000000  0.000000  0.296216 )  


     PseudoPot. # 1 for O  read from file:
     /gpfs/group/ixd4/default/Simon/pseudopotentials/materialscloud/SSSP_1.3.0_PBE_efficiency/O.pbe-n-kjpaw_psl.0.1.UPF
     MD5 check sum: 0234752ac141de4415c5fc33072bef88
     Pseudo is Projector augmented-wave + core cor, Zval =  6.0
     Generated using "atomic" code by A. Dal Corso  v.5.0.99 svn rev. 10869
     Shape of augmentation charge: BESSEL
     Using radial grid of 1095 points,  4 beta functions with: 
                l(1) =   0
                l(2) =   0
                l(3) =   1
                l(4) =   1
     Q(r) pseudized with 0 coefficients 


     PseudoPot. # 2 for Ru read from file:
     /gpfs/group/ixd4/default/Simon/pseudopotentials/materialscloud/SSSP_1.3.0_PBE_efficiency/Ru_ONCV_PBE-1.0.oncvpsp.upf
     MD5 check sum: be037bb81c227cfb9b1461a9f099f4bd
     Pseudo is Norm-conserving, Zval = 16.0
     Generated using ONCVPSP code by D. R. Hamann
     Using radial grid of 1458 points,  6 beta functions with: 
                l(1) =   0
                l(2) =   0
                l(3) =   1
                l(4) =   1
                l(5) =   2
                l(6) =   2

     PseudoPot. # 3 for H  read from file:
     /gpfs/group/ixd4/default/Simon/pseudopotentials/materialscloud/SSSP_1.3.0_PBE_efficiency/H.pbe-rrkjus_psl.1.0.0.UPF
     MD5 check sum: f52b6d4d1c606e5624b1dc7b2218f220
     Pseudo is Ultrasoft, Zval =  1.0
     Generated using "atomic" code by A. Dal Corso  v.5.1
     Using radial grid of  929 points,  2 beta functions with: 
                l(1) =   0
                l(2) =   0
     Q(r) pseudized with 0 coefficients 


     atomic species   valence    mass     pseudopotential
        O              6.00    15.99940     O ( 1.00)
        Ru            16.00   101.07000     Ru( 1.00)
        H              1.00     1.00794     H ( 1.00)

      4 Sym. Ops. (no inversion) found



   Cartesian axes

     site n.     atom                  positions (alat units)
         1           O   tau(   1) = (   0.0000000   0.4523832   0.8804697  )
         2           O   tau(   2) = (   0.5000000   0.4523832   0.8804697  )
         3           O   tau(   3) = (   0.0000000   0.0000000   0.9930802  )
         4           O   tau(   4) = (   0.5000000   0.0000000   0.9930802  )
         5           Ru  tau(   5) = (   0.2500000   0.0000000   1.1871684  )
         6           Ru  tau(   6) = (   0.7500000   0.0000000   1.1871684  )
         7           O   tau(   7) = (   0.2500000   0.2770530   1.1871684  )
         8           O   tau(   8) = (   0.7500000   0.2770530   1.1871684  )
         9           Ru  tau(   9) = (   0.0000000   0.4523832   1.1871684  )
        10           Ru  tau(  10) = (   0.5000000   0.4523832   1.1871684  )
        11           O   tau(  11) = (   0.2500000   0.6277133   1.1871684  )
        12           O   tau(  12) = (   0.7500000   0.6277133   1.1871684  )
        13           O   tau(  13) = (   0.0000000   0.0000000   1.3812600  )
        14           O   tau(  14) = (   0.5000000   0.0000000   1.3812600  )
        15           O   tau(  15) = (   0.0000000   0.4523832   1.4938705  )
        16           O   tau(  16) = (   0.5000000   0.4523832   1.4938705  )
        17           Ru  tau(  17) = (   0.0000000   0.0000000   1.6879622  )
        18           Ru  tau(  18) = (   0.5000000   0.0000000   1.6879622  )
        19           O   tau(  19) = (   0.2500000   0.1753301   1.6879622  )
        20           O   tau(  20) = (   0.7500000   0.1753301   1.6879622  )
        21           Ru  tau(  21) = (   0.2500000   0.4523832   1.6879622  )
        22           Ru  tau(  22) = (   0.7500000   0.4523832   1.6879622  )
        23           O   tau(  23) = (   0.2500000   0.7294371   1.6879622  )
        24           O   tau(  24) = (   0.7500000   0.7294371   1.6879622  )
        25           O   tau(  25) = (   0.0000000   0.4523832   1.8820504  )
        26           O   tau(  26) = (   0.5000000   0.4523832   1.8820504  )
        27           O   tau(  27) = (   0.0000000   0.0000000   1.9946609  )
        28           O   tau(  28) = (   0.5000000   0.0000000   1.9946609  )
        29           Ru  tau(  29) = (   0.2500000   0.0000000   2.1887525  )
        30           Ru  tau(  30) = (   0.7500000   0.0000000   2.1887525  )
        31           O   tau(  31) = (   0.2500000   0.2770530   2.1887525  )
        32           O   tau(  32) = (   0.7500000   0.2770530   2.1887525  )
        33           Ru  tau(  33) = (   0.0000000   0.4523832   2.1887525  )
        34           Ru  tau(  34) = (   0.5000000   0.4523832   2.1887525  )
        35           O   tau(  35) = (   0.2500000   0.6277133   2.1887525  )
        36           O   tau(  36) = (   0.7500000   0.6277133   2.1887525  )
        37           O   tau(  37) = (   0.0000000   0.0000000   2.3828441  )
        38           O   tau(  38) = (   0.5000000   0.0000000   2.3828441  )
        39           O   tau(  39) = (   0.0000000   0.4523832   2.4954513  )
        40           O   tau(  40) = (   0.5000000   0.4523832   2.4954513  )
        41           H   tau(  41) = (   0.1176350   0.4523832   0.7660733  )
        42           H   tau(  42) = (   0.1176350   0.4523832   2.6098442  )
        43           H   tau(  43) = (   0.6176350   0.4523832   0.7660733  )
        44           H   tau(  44) = (   0.6176350   0.4523832   2.6098442  )

     number of k points=     1  Marzari-Vanderbilt smearing, width (Ry)=  0.0300
                       cart. coord. in units 2pi/alat
        k(    1) = (   0.2500000   0.2763144   0.0000000), wk =   2.0000000

     Dense  grid:  1096679 G-vectors     FFT dimensions: (  90,  80, 300)

     Smooth grid:   277485 G-vectors     FFT dimensions: (  60,  54, 192)

     Estimated max dynamical RAM per process >     168.00 MB

     Estimated total dynamical RAM >       3.28 GB

     Check: negative core charge=   -0.000001

     Initial potential from superposition of free atoms

     starting charge     363.9933, renormalised to     364.0000

     add environment contribution to local potential
     Polarization accuracy = 1.6E-12, # of iterations =  21

     negative rho (up, down):  1.794E-05 0.000E+00
     Starting wfcs are  236 randomized atomic wfcs
     Checking if some PAW data can be deallocated... 

     total cpu time spent up to now is      838.3 secs

     per-process dynamical memory:   137.2 Mb

     Self-consistent Calculation

     iteration #  1     ecut=    50.00 Ry     beta= 0.70
     Davidson diagonalization with overlap
     ethr =  1.00E-02,  avg # of iterations =  2.0

     negative rho (up, down):  1.447E-08 0.000E+00

     total cpu time spent up to now is     1048.1 secs

     total energy              =   -3429.37472500 Ry
     estimated scf accuracy    <      11.07466033 Ry
     electrostatic embedding   =      -0.00196935 Ry
     cavitation energy         =       0.02110303 Ry
     PV energy                 =      -0.08703252 Ry
     correction to one-el term =     218.63566979 Ry

     iteration #  2     ecut=    50.00 Ry     beta= 0.70
     Davidson diagonalization with overlap
     ethr =  3.04E-03,  avg # of iterations =  2.0

     total cpu time spent up to now is     1319.8 secs

     total energy              =   -3431.61844439 Ry
     estimated scf accuracy    <       7.32932956 Ry
     electrostatic embedding   =      -0.00271456 Ry
     cavitation energy         =       0.02161049 Ry
     PV energy                 =      -0.08689248 Ry
     correction to one-el term =     218.63729171 Ry

     iteration #  3     ecut=    50.00 Ry     beta= 0.70
     Davidson diagonalization with overlap
     ethr =  2.01E-03,  avg # of iterations =  1.0

     total cpu time spent up to now is     1603.8 secs

     total energy              =   -3432.20097155 Ry
     estimated scf accuracy    <       1.54365188 Ry
     electrostatic embedding   =      -0.00310921 Ry
     cavitation energy         =       0.02131433 Ry
     PV energy                 =      -0.08732546 Ry
     correction to one-el term =     218.63873206 Ry

     iteration #  4     ecut=    50.00 Ry     beta= 0.70
     Davidson diagonalization with overlap
     ethr =  4.24E-04,  avg # of iterations =  1.0

     total cpu time spent up to now is     1876.4 secs

     total energy              =   -3432.24252838 Ry
     estimated scf accuracy    <       0.23164861 Ry
     electrostatic embedding   =      -0.00315242 Ry
     cavitation energy         =       0.02146335 Ry
     PV energy                 =      -0.08678505 Ry
     correction to one-el term =     218.63857035 Ry

     iteration #  5     ecut=    50.00 Ry     beta= 0.70
     Davidson diagonalization with overlap
     ethr =  6.36E-05,  avg # of iterations =  2.0

     total cpu time spent up to now is     2156.2 secs

     total energy              =   -3432.24868301 Ry
     estimated scf accuracy    <       0.12213272 Ry
     electrostatic embedding   =      -0.00321336 Ry
     cavitation energy         =       0.02155647 Ry
     PV energy                 =      -0.08621932 Ry
     correction to one-el term =     218.63852468 Ry

     iteration #  6     ecut=    50.00 Ry     beta= 0.70
     Davidson diagonalization with overlap
     ethr =  3.36E-05,  avg # of iterations =  1.0

     total cpu time spent up to now is     2358.7 secs

     total energy              =   -3432.25155995 Ry
     estimated scf accuracy    <       0.12162279 Ry
     electrostatic embedding   =      -0.00324009 Ry
     cavitation energy         =       0.02174475 Ry
     PV energy                 =      -0.08502361 Ry
     correction to one-el term =     218.63823190 Ry

     iteration #  7     ecut=    50.00 Ry     beta= 0.70
     Davidson diagonalization with overlap
     ethr =  3.34E-05,  avg # of iterations =  1.0

     add environment contribution to local potential
     Polarization accuracy = 4.0E-12, # of iterations =  34

     total cpu time spent up to now is     2628.4 secs

     total energy              =   -3432.25025079 Ry
     estimated scf accuracy    <       0.09473418 Ry
     electrostatic embedding   =      -0.00318591 Ry
     cavitation energy         =       0.02176754 Ry
     PV energy                 =      -0.08454874 Ry
     correction to one-el term =     218.63796770 Ry

     iteration #  8     ecut=    50.00 Ry     beta= 0.70
     Davidson diagonalization with overlap
     ethr =  2.60E-05,  avg # of iterations =  2.0

     total cpu time spent up to now is     2867.1 secs

     total energy              =   -3432.29560160 Ry
     estimated scf accuracy    <       0.17795396 Ry
     electrostatic embedding   =      -0.03520796 Ry
     cavitation energy         =       0.02173487 Ry
     PV energy                 =      -0.08409280 Ry
     correction to one-el term =     203.51532542 Ry

     iteration #  9     ecut=    50.00 Ry     beta= 0.70
     Davidson diagonalization with overlap
     ethr =  2.60E-05,  avg # of iterations =  1.0

     total cpu time spent up to now is     3107.4 secs

     total energy              =   -3432.29276921 Ry
     estimated scf accuracy    <       0.21461276 Ry
     electrostatic embedding   =      -0.03506921 Ry
     cavitation energy         =       0.02173745 Ry
     PV energy                 =      -0.08413050 Ry
     correction to one-el term =     203.51481059 Ry

     iteration # 10     ecut=    50.00 Ry     beta= 0.70
     Davidson diagonalization with overlap
     ethr =  2.60E-05,  avg # of iterations =  1.0

     total cpu time spent up to now is     3335.4 secs

     total energy              =   -3432.28209091 Ry
     estimated scf accuracy    <       0.16437441 Ry
     electrostatic embedding   =      -0.03542849 Ry
     cavitation energy         =       0.02170438 Ry
     PV energy                 =      -0.08398774 Ry
     correction to one-el term =     203.51619449 Ry

     iteration # 11     ecut=    50.00 Ry     beta= 0.70
     Davidson diagonalization with overlap
     ethr =  2.60E-05,  avg # of iterations =  1.0

     add environment contribution to local potential
     Polarization accuracy = 4.0E-12, # of iterations =  42

     total cpu time spent up to now is     3576.4 secs

     total energy              =   -3432.27268297 Ry
     estimated scf accuracy    <       0.06627898 Ry
     electrostatic embedding   =      -0.03693639 Ry
     cavitation energy         =       0.02159880 Ry
     PV energy                 =      -0.08348010 Ry
     correction to one-el term =     203.52200652 Ry

     iteration # 12     ecut=    50.00 Ry     beta= 0.70
     Davidson diagonalization with overlap
     ethr =  1.82E-05,  avg # of iterations =  2.0

     negative rho (up, down):  1.315E-03 0.000E+00

     total cpu time spent up to now is     3796.9 secs

     total energy              =   -3432.28532665 Ry
     estimated scf accuracy    <       0.15780215 Ry
     electrostatic embedding   =      -0.05849289 Ry
     cavitation energy         =       0.02131401 Ry
     PV energy                 =      -0.08306688 Ry
     correction to one-el term =     203.72320987 Ry

     iteration # 13     ecut=    50.00 Ry     beta= 0.70
     Davidson diagonalization with overlap
     ethr =  1.82E-05,  avg # of iterations =  1.0

     add environment contribution to local potential
     Polarization accuracy = 6.5E-12, # of iterations =  41

     total cpu time spent up to now is     4063.3 secs

     total energy              =   -3432.27877111 Ry
     estimated scf accuracy    <       0.02932431 Ry
     electrostatic embedding   =      -0.06171389 Ry
     cavitation energy         =       0.02115275 Ry
     PV energy                 =      -0.08282335 Ry
     correction to one-el term =     203.73416787 Ry

     iteration # 14     ecut=    50.00 Ry     beta= 0.70
     Davidson diagonalization with overlap
     ethr =  8.06E-06,  avg # of iterations =  2.0

     negative rho (up, down):  1.925E-06 0.000E+00

     add environment contribution to local potential
     Polarization accuracy = 2.9E-12, # of iterations =  41

     total cpu time spent up to now is     4337.6 secs

     total energy              =   -3432.28870484 Ry
     estimated scf accuracy    <       0.01097275 Ry
     electrostatic embedding   =      -0.06463928 Ry
     cavitation energy         =       0.02115335 Ry
     PV energy                 =      -0.08297930 Ry
     correction to one-el term =     204.52367684 Ry

     iteration # 15     ecut=    50.00 Ry     beta= 0.70
     Davidson diagonalization with overlap
     ethr =  3.01E-06,  avg # of iterations =  2.0

     negative rho (up, down):  2.009E-03 0.000E+00

     add environment contribution to local potential
     Polarization accuracy = 5.5E-12, # of iterations =  42

     total cpu time spent up to now is     4611.7 secs

     total energy              =   -3432.28966182 Ry
     estimated scf accuracy    <       0.00371569 Ry
     electrostatic embedding   =      -0.07063036 Ry
     cavitation energy         =       0.02103415 Ry
     PV energy                 =      -0.08298293 Ry
     correction to one-el term =     204.97835067 Ry

     iteration # 16     ecut=    50.00 Ry     beta= 0.70
     Davidson diagonalization with overlap
     ethr =  1.02E-06,  avg # of iterations =  2.0

     negative rho (up, down):  1.319E-03 0.000E+00

     add environment contribution to local potential
     Polarization accuracy = 5.7E-12, # of iterations =  41

     total cpu time spent up to now is     4908.6 secs

     total energy              =   -3432.28975241 Ry
     estimated scf accuracy    <       0.00235713 Ry
     electrostatic embedding   =      -0.07472616 Ry
     cavitation energy         =       0.02096622 Ry
     PV energy                 =      -0.08300023 Ry
     correction to one-el term =     205.35206384 Ry

     iteration # 17     ecut=    50.00 Ry     beta= 0.70
     Davidson diagonalization with overlap
     ethr =  6.48E-07,  avg # of iterations =  1.0

     negative rho (up, down):  6.862E-07 0.000E+00

     add environment contribution to local potential
     Polarization accuracy = 6.5E-12, # of iterations =  41

     total cpu time spent up to now is     5182.2 secs

     total energy              =   -3432.28965773 Ry
     estimated scf accuracy    <       0.00207886 Ry
     electrostatic embedding   =      -0.07316330 Ry
     cavitation energy         =       0.02098698 Ry
     PV energy                 =      -0.08304514 Ry
     correction to one-el term =     205.46695888 Ry

     iteration # 18     ecut=    50.00 Ry     beta= 0.70
     Davidson diagonalization with overlap
     ethr =  5.71E-07,  avg # of iterations =  2.0

     negative rho (up, down):  4.808E-06 0.000E+00

     add environment contribution to local potential
     Polarization accuracy = 7.4E-12, # of iterations =  40

     total cpu time spent up to now is     5450.6 secs

     total energy              =   -3432.28991013 Ry
     estimated scf accuracy    <       0.00047883 Ry
     electrostatic embedding   =      -0.06983772 Ry
     cavitation energy         =       0.02104730 Ry
     PV energy                 =      -0.08308785 Ry
     correction to one-el term =     205.52267336 Ry

     iteration # 19     ecut=    50.00 Ry     beta= 0.70
     Davidson diagonalization with overlap
     ethr =  1.32E-07,  avg # of iterations =  1.0

     negative rho (up, down):  1.251E-08 0.000E+00

     add environment contribution to local potential
     Polarization accuracy = 4.1E-12, # of iterations =  40

     total cpu time spent up to now is     5703.7 secs

     total energy              =   -3432.28986766 Ry
     estimated scf accuracy    <       0.00050890 Ry
     electrostatic embedding   =      -0.06932631 Ry
     cavitation energy         =       0.02106360 Ry
     PV energy                 =      -0.08307969 Ry
     correction to one-el term =     205.57007252 Ry

     iteration # 20     ecut=    50.00 Ry     beta= 0.70
     Davidson diagonalization with overlap
     ethr =  1.32E-07,  avg # of iterations =  2.0

     negative rho (up, down):  4.126E-08 0.000E+00

     add environment contribution to local potential
     Polarization accuracy = 2.5E-12, # of iterations =  40

     total cpu time spent up to now is     5934.9 secs

     total energy              =   -3432.28995578 Ry
     estimated scf accuracy    <       0.00022095 Ry
     electrostatic embedding   =      -0.06727756 Ry
     cavitation energy         =       0.02109852 Ry
     PV energy                 =      -0.08308364 Ry
     correction to one-el term =     205.63059398 Ry

     iteration # 21     ecut=    50.00 Ry     beta= 0.70
     Davidson diagonalization with overlap
     ethr =  6.07E-08,  avg # of iterations =  1.0

     negative rho (up, down):  6.697E-05 0.000E+00

     add environment contribution to local potential
     Polarization accuracy = 3.4E-12, # of iterations =  40

     total cpu time spent up to now is     6201.5 secs

     total energy              =   -3432.28995654 Ry
     estimated scf accuracy    <       0.00009076 Ry
     electrostatic embedding   =      -0.06715452 Ry
     cavitation energy         =       0.02109585 Ry
     PV energy                 =      -0.08309159 Ry
     correction to one-el term =     205.64823326 Ry

     iteration # 22     ecut=    50.00 Ry     beta= 0.70
     Davidson diagonalization with overlap
     ethr =  2.49E-08,  avg # of iterations =  3.0

     negative rho (up, down):  1.152E-04 0.000E+00

     add environment contribution to local potential
     Polarization accuracy = 2.8E-12, # of iterations =  40

     total cpu time spent up to now is     6472.2 secs

     total energy              =   -3432.28997888 Ry
     estimated scf accuracy    <       0.00001433 Ry
     electrostatic embedding   =      -0.06498557 Ry
     cavitation energy         =       0.02112555 Ry
     PV energy                 =      -0.08309439 Ry
     correction to one-el term =     205.85687881 Ry

     iteration # 23     ecut=    50.00 Ry     beta= 0.70
     Davidson diagonalization with overlap
     ethr =  3.94E-09,  avg # of iterations =  2.0

     negative rho (up, down):  7.012E-05 0.000E+00

     add environment contribution to local potential
     Polarization accuracy = 3.5E-12, # of iterations =  40

     total cpu time spent up to now is     6757.7 secs

     total energy              =   -3432.28997863 Ry
     estimated scf accuracy    <       0.00000189 Ry
     electrostatic embedding   =      -0.06496587 Ry
     cavitation energy         =       0.02112278 Ry
     PV energy                 =      -0.08309333 Ry
     correction to one-el term =     205.88544306 Ry

     iteration # 24     ecut=    50.00 Ry     beta= 0.70
     Davidson diagonalization with overlap
     ethr =  5.20E-10,  avg # of iterations = 13.0

     negative rho (up, down):  1.140E-04 0.000E+00

     add environment contribution to local potential
     Polarization accuracy = 3.2E-12, # of iterations =  40

     total cpu time spent up to now is     7019.6 secs

     total energy              =   -3432.28997889 Ry
     estimated scf accuracy    <       0.00000061 Ry
     electrostatic embedding   =      -0.06506997 Ry
     cavitation energy         =       0.02111608 Ry
     PV energy                 =      -0.08309189 Ry
     correction to one-el term =     205.90012654 Ry

     iteration # 25     ecut=    50.00 Ry     beta= 0.70
     Davidson diagonalization with overlap
     ethr =  1.67E-10,  avg # of iterations =  2.0

     negative rho (up, down):  1.173E-04 0.000E+00

     add environment contribution to local potential
     Polarization accuracy = 3.0E-12, # of iterations =  40

     total cpu time spent up to now is     7283.3 secs

     total energy              =   -3432.28997777 Ry
     estimated scf accuracy    <       0.00000041 Ry
     electrostatic embedding   =      -0.06495431 Ry
     cavitation energy         =       0.02111612 Ry
     PV energy                 =      -0.08309259 Ry
     correction to one-el term =     205.91646743 Ry

     iteration # 26     ecut=    50.00 Ry     beta= 0.70
     Davidson diagonalization with overlap
     ethr =  1.12E-10,  avg # of iterations =  2.0

     negative rho (up, down):  1.212E-04 0.000E+00

     add environment contribution to local potential
     Polarization accuracy = 2.5E-12, # of iterations =  40

     total cpu time spent up to now is     7519.4 secs

     total energy              =   -3432.28997752 Ry
     estimated scf accuracy    <       0.00000028 Ry
     electrostatic embedding   =      -0.06490634 Ry
     cavitation energy         =       0.02111606 Ry
     PV energy                 =      -0.08309320 Ry
     correction to one-el term =     205.91999543 Ry

     iteration # 27     ecut=    50.00 Ry     beta= 0.70
     Davidson diagonalization with overlap
     ethr =  7.72E-11,  avg # of iterations =  2.0

     negative rho (up, down):  1.434E-04 0.000E+00

     add environment contribution to local potential
     Polarization accuracy = 9.1E-12, # of iterations =  39

     total cpu time spent up to now is     7760.7 secs

     total energy              =   -3432.28997700 Ry
     estimated scf accuracy    <       0.00000016 Ry
     electrostatic embedding   =      -0.06485199 Ry
     cavitation energy         =       0.02111588 Ry
     PV energy                 =      -0.08309371 Ry
     correction to one-el term =     205.92532048 Ry

     iteration # 28     ecut=    50.00 Ry     beta= 0.70
     Davidson diagonalization with overlap
     ethr =  4.49E-11,  avg # of iterations =  2.0

     negative rho (up, down):  1.494E-04 0.000E+00

     add environment contribution to local potential
     Polarization accuracy = 5.5E-12, # of iterations =  39

     total cpu time spent up to now is     8010.9 secs

     total energy              =   -3432.28997659 Ry
     estimated scf accuracy    <       0.00000008 Ry
     electrostatic embedding   =      -0.06479838 Ry
     cavitation energy         =       0.02111537 Ry
     PV energy                 =      -0.08309418 Ry
     correction to one-el term =     205.93363189 Ry

     iteration # 29     ecut=    50.00 Ry     beta= 0.70
     Davidson diagonalization with overlap
     ethr =  2.24E-11,  avg # of iterations =  2.0

     negative rho (up, down):  1.424E-04 0.000E+00

     add environment contribution to local potential
     Polarization accuracy = 7.6E-12, # of iterations =  39

     total cpu time spent up to now is     8227.3 secs

     total energy              =   -3432.28997675 Ry
     estimated scf accuracy    <       0.00000008 Ry
     electrostatic embedding   =      -0.06476965 Ry
     cavitation energy         =       0.02111500 Ry
     PV energy                 =      -0.08309482 Ry
     correction to one-el term =     205.93607067 Ry

     iteration # 30     ecut=    50.00 Ry     beta= 0.70
     Davidson diagonalization with overlap
     ethr =  2.22E-11,  avg # of iterations =  1.0

     negative rho (up, down):  1.460E-04 0.000E+00

     add environment contribution to local potential
     Polarization accuracy = 6.7E-12, # of iterations =  38

     total cpu time spent up to now is     8439.4 secs

     total energy              =   -3432.28997714 Ry
     estimated scf accuracy    <       0.00000007 Ry
     electrostatic embedding   =      -0.06476701 Ry
     cavitation energy         =       0.02111485 Ry
     PV energy                 =      -0.08309522 Ry
     correction to one-el term =     205.93461105 Ry

     iteration # 31     ecut=    50.00 Ry     beta= 0.70
     Davidson diagonalization with overlap
     ethr =  1.82E-11,  avg # of iterations =  2.0

     negative rho (up, down):  1.404E-04 0.000E+00

     add environment contribution to local potential
     Polarization accuracy = 7.5E-12, # of iterations =  38

     total cpu time spent up to now is     8690.6 secs

     total energy              =   -3432.28997740 Ry
     estimated scf accuracy    <       0.00000006 Ry
     electrostatic embedding   =      -0.06474668 Ry
     cavitation energy         =       0.02111460 Ry
     PV energy                 =      -0.08309549 Ry
     correction to one-el term =     205.93729063 Ry

     iteration # 32     ecut=    50.00 Ry     beta= 0.70
     Davidson diagonalization with overlap
     ethr =  1.69E-11,  avg # of iterations =  2.0

     negative rho (up, down):  1.376E-04 0.000E+00

     add environment contribution to local potential
     Polarization accuracy = 7.4E-12, # of iterations =  39

     total cpu time spent up to now is     9024.0 secs

     total energy              =   -3432.28997836 Ry
     estimated scf accuracy    <       0.00000006 Ry
     electrostatic embedding   =      -0.06472913 Ry
     cavitation energy         =       0.02111446 Ry
     PV energy                 =      -0.08309602 Ry
     correction to one-el term =     205.93745519 Ry

     iteration # 33     ecut=    50.00 Ry     beta= 0.70
     Davidson diagonalization with overlap
     ethr =  1.52E-11,  avg # of iterations =  1.0

     negative rho (up, down):  1.186E-04 0.000E+00

     add environment contribution to local potential
     Polarization accuracy = 4.8E-12, # of iterations =  39

     total cpu time spent up to now is     9287.2 secs

     total energy              =   -3432.28997911 Ry
     estimated scf accuracy    <       0.00000006 Ry
     electrostatic embedding   =      -0.06472464 Ry
     cavitation energy         =       0.02111453 Ry
     PV energy                 =      -0.08309611 Ry
     correction to one-el term =     205.93748024 Ry

     iteration # 34     ecut=    50.00 Ry     beta= 0.70
     Davidson diagonalization with overlap
     ethr =  1.52E-11,  avg # of iterations =  2.0

     negative rho (up, down):  1.192E-04 0.000E+00

     add environment contribution to local potential
     Polarization accuracy = 5.3E-12, # of iterations =  39

     total cpu time spent up to now is     9582.1 secs

     total energy              =   -3432.28998255 Ry
     estimated scf accuracy    <       0.00000005 Ry
     electrostatic embedding   =      -0.06474976 Ry
     cavitation energy         =       0.02111493 Ry
     PV energy                 =      -0.08309599 Ry
     correction to one-el term =     205.93294773 Ry

     iteration # 35     ecut=    50.00 Ry     beta= 0.70
     Davidson diagonalization with overlap
     ethr =  1.34E-11,  avg # of iterations =  1.0

     negative rho (up, down):  1.119E-04 0.000E+00

     add environment contribution to local potential
     Polarization accuracy = 7.4E-12, # of iterations =  39

     total cpu time spent up to now is     9819.2 secs

     total energy              =   -3432.28998341 Ry
     estimated scf accuracy    <       0.00000006 Ry
     electrostatic embedding   =      -0.06474575 Ry
     cavitation energy         =       0.02111487 Ry
     PV energy                 =      -0.08309605 Ry
     correction to one-el term =     205.93333668 Ry

     iteration # 36     ecut=    50.00 Ry     beta= 0.70
     Davidson diagonalization with overlap
     ethr =  1.34E-11,  avg # of iterations =  2.0

     negative rho (up, down):  1.071E-04 0.000E+00

     add environment contribution to local potential
     Polarization accuracy = 7.2E-12, # of iterations =  39

     total cpu time spent up to now is    10036.4 secs

     total energy              =   -3432.28998739 Ry
     estimated scf accuracy    <       0.00000004 Ry
     electrostatic embedding   =      -0.06474939 Ry
     cavitation energy         =       0.02111486 Ry
     PV energy                 =      -0.08309618 Ry
     correction to one-el term =     205.93193953 Ry

     iteration # 37     ecut=    50.00 Ry     beta= 0.70
     Davidson diagonalization with overlap
     ethr =  1.09E-11,  avg # of iterations =  2.0

     negative rho (up, down):  1.098E-04 0.000E+00

     add environment contribution to local potential
     Polarization accuracy = 7.4E-12, # of iterations =  39

     total cpu time spent up to now is    10379.6 secs

     total energy              =   -3432.28999060 Ry
     estimated scf accuracy    <       0.00000003 Ry
     electrostatic embedding   =      -0.06477400 Ry
     cavitation energy         =       0.02111511 Ry
     PV energy                 =      -0.08309578 Ry
     correction to one-el term =     205.92954668 Ry

     iteration # 38     ecut=    50.00 Ry     beta= 0.70
     Davidson diagonalization with overlap
     ethr =  9.23E-12,  avg # of iterations =  5.0

     negative rho (up, down):  1.195E-04 0.000E+00

     add environment contribution to local potential
     Polarization accuracy = 6.8E-12, # of iterations =  39

     total cpu time spent up to now is    10672.0 secs

     total energy              =   -3432.28999763 Ry
     estimated scf accuracy    <       0.00000004 Ry
     electrostatic embedding   =      -0.06479127 Ry
     cavitation energy         =       0.02111507 Ry
     PV energy                 =      -0.08309543 Ry
     correction to one-el term =     205.92902668 Ry

     iteration # 39     ecut=    50.00 Ry     beta= 0.70
     Davidson diagonalization with overlap
     ethr =  9.23E-12,  avg # of iterations =  2.0

     negative rho (up, down):  1.295E-04 0.000E+00

     add environment contribution to local potential
     Polarization accuracy = 2.7E-12, # of iterations =  38

     total cpu time spent up to now is    10934.6 secs

     total energy              =   -3432.29000719 Ry
     estimated scf accuracy    <       0.00000002 Ry
     electrostatic embedding   =      -0.06479559 Ry
     cavitation energy         =       0.02111477 Ry
     PV energy                 =      -0.08309528 Ry
     correction to one-el term =     205.93042924 Ry

     iteration # 40     ecut=    50.00 Ry     beta= 0.70
     Davidson diagonalization with overlap
     ethr =  6.82E-12,  avg # of iterations =  3.0

     negative rho (up, down):  1.316E-04 0.000E+00

     add environment contribution to local potential
     Polarization accuracy = 2.4E-12, # of iterations =  39

     total cpu time spent up to now is    11190.7 secs

     total energy              =   -3432.29001247 Ry
     estimated scf accuracy    <          4.1E-09 Ry
     electrostatic embedding   =      -0.06479613 Ry
     cavitation energy         =       0.02111458 Ry
     PV energy                 =      -0.08309515 Ry
     correction to one-el term =     205.93180177 Ry

     iteration # 41     ecut=    50.00 Ry     beta= 0.70
     Davidson diagonalization with overlap
     ethr =  1.12E-12,  avg # of iterations =  5.0

     negative rho (up, down):  1.329E-04 0.000E+00

     add environment contribution to local potential
     Polarization accuracy = 2.0E-12, # of iterations =  39

     total cpu time spent up to now is    11406.4 secs

     total energy              =   -3432.29001302 Ry
     estimated scf accuracy    <          3.6E-09 Ry
     electrostatic embedding   =      -0.06478911 Ry
     cavitation energy         =       0.02111461 Ry
     PV energy                 =      -0.08309520 Ry
     correction to one-el term =     205.93250339 Ry

     iteration # 42     ecut=    50.00 Ry     beta= 0.70
     Davidson diagonalization with overlap
     ethr =  9.99E-13,  avg # of iterations =  2.0

     negative rho (up, down):  1.342E-04 0.000E+00

     add environment contribution to local potential
     Polarization accuracy = 1.6E-12, # of iterations =  39

     total cpu time spent up to now is    11688.7 secs

     total energy              =   -3432.29001321 Ry
     estimated scf accuracy    <          2.5E-09 Ry
     electrostatic embedding   =      -0.06478541 Ry
     cavitation energy         =       0.02111464 Ry
     PV energy                 =      -0.08309522 Ry
     correction to one-el term =     205.93291301 Ry

     iteration # 43     ecut=    50.00 Ry     beta= 0.70
     Davidson diagonalization with overlap
     ethr =  6.76E-13,  avg # of iterations =  3.0

     negative rho (up, down):  1.353E-04 0.000E+00

     add environment contribution to local potential
     Polarization accuracy = 9.7E-13, # of iterations =  39

     total cpu time spent up to now is    11866.3 secs

     total energy              =   -3432.29001338 Ry
     estimated scf accuracy    <          3.4E-09 Ry
     electrostatic embedding   =      -0.06477247 Ry
     cavitation energy         =       0.02111477 Ry
     PV energy                 =      -0.08309532 Ry
     correction to one-el term =     205.93374981 Ry

     iteration # 44     ecut=    50.00 Ry     beta= 0.70
     Davidson diagonalization with overlap
     ethr =  6.76E-13,  avg # of iterations =  2.0

     negative rho (up, down):  1.359E-04 0.000E+00

     add environment contribution to local potential
     Polarization accuracy = 8.9E-13, # of iterations =  39

     total cpu time spent up to now is    12053.5 secs

     total energy              =   -3432.29001362 Ry
     estimated scf accuracy    <          2.1E-09 Ry
     electrostatic embedding   =      -0.06476831 Ry
     cavitation energy         =       0.02111482 Ry
     PV energy                 =      -0.08309533 Ry
     correction to one-el term =     205.93413500 Ry

     iteration # 45     ecut=    50.00 Ry     beta= 0.70
     Davidson diagonalization with overlap
     ethr =  5.85E-13,  avg # of iterations =  2.0

     negative rho (up, down):  1.357E-04 0.000E+00

     add environment contribution to local potential
     Polarization accuracy = 3.2E-12, # of iterations =  38

     total cpu time spent up to now is    12275.6 secs

     total energy              =   -3432.29001337 Ry
     estimated scf accuracy    <          1.6E-09 Ry
     electrostatic embedding   =      -0.06476247 Ry
     cavitation energy         =       0.02111490 Ry
     PV energy                 =      -0.08309536 Ry
     correction to one-el term =     205.93452132 Ry

     iteration # 46     ecut=    50.00 Ry     beta= 0.70
     Davidson diagonalization with overlap
     ethr =  4.27E-13,  avg # of iterations =  2.0

     negative rho (up, down):  1.364E-04 0.000E+00

     add environment contribution to local potential
     Polarization accuracy = 1.2E-12, # of iterations =  39

     total cpu time spent up to now is    12565.0 secs

     total energy              =   -3432.29001312 Ry
     estimated scf accuracy    <          1.2E-09 Ry
     electrostatic embedding   =      -0.06476420 Ry
     cavitation energy         =       0.02111485 Ry
     PV energy                 =      -0.08309536 Ry
     correction to one-el term =     205.93442825 Ry

     iteration # 47     ecut=    50.00 Ry     beta= 0.70
     Davidson diagonalization with overlap
     ethr =  3.26E-13,  avg # of iterations =  2.0

     negative rho (up, down):  1.375E-04 0.000E+00

     add environment contribution to local potential
     Polarization accuracy = 1.1E-12, # of iterations =  39

     total cpu time spent up to now is    12818.5 secs

     total energy              =   -3432.29001281 Ry
     estimated scf accuracy    <          1.0E-09 Ry
     electrostatic embedding   =      -0.06476070 Ry
     cavitation energy         =       0.02111487 Ry
     PV energy                 =      -0.08309539 Ry
     correction to one-el term =     205.93473739 Ry

     iteration # 48     ecut=    50.00 Ry     beta= 0.70
     Davidson diagonalization with overlap
     ethr =  2.86E-13,  avg # of iterations =  2.0

     negative rho (up, down):  1.376E-04 0.000E+00

     add environment contribution to local potential
     Polarization accuracy = 7.2E-12, # of iterations =  38

     total cpu time spent up to now is    13057.0 secs

     total energy              =   -3432.29001272 Ry
     estimated scf accuracy    <          3.9E-10 Ry
     electrostatic embedding   =      -0.06475507 Ry
     cavitation energy         =       0.02111490 Ry
     PV energy                 =      -0.08309544 Ry
     correction to one-el term =     205.93521241 Ry

     iteration # 49     ecut=    50.00 Ry     beta= 0.70
     Davidson diagonalization with overlap
     ethr =  1.06E-13,  avg # of iterations =  1.0

     negative rho (up, down):  1.377E-04 0.000E+00

     add environment contribution to local potential
     Polarization accuracy = 2.4E-12, # of iterations =  38

     total cpu time spent up to now is    13354.0 secs

     total energy              =   -3432.29001263 Ry
     estimated scf accuracy    <          2.3E-10 Ry
     electrostatic embedding   =      -0.06475501 Ry
     cavitation energy         =       0.02111488 Ry
     PV energy                 =      -0.08309545 Ry
     correction to one-el term =     205.93524782 Ry

     iteration # 50     ecut=    50.00 Ry     beta= 0.70
     Davidson diagonalization with overlap
     ethr =  1.00E-13,  avg # of iterations =  1.0

     negative rho (up, down):  1.386E-04 0.000E+00

     add environment contribution to local potential
     Polarization accuracy = 3.3E-12, # of iterations =  38

     total cpu time spent up to now is    13576.0 secs

     total energy              =   -3432.29001263 Ry
     estimated scf accuracy    <          1.7E-10 Ry
     electrostatic embedding   =      -0.06475510 Ry
     cavitation energy         =       0.02111487 Ry
     PV energy                 =      -0.08309545 Ry
     correction to one-el term =     205.93528507 Ry

     iteration # 51     ecut=    50.00 Ry     beta= 0.70
     Davidson diagonalization with overlap
     ethr =  1.00E-13,  avg # of iterations =  2.0

     negative rho (up, down):  1.382E-04 0.000E+00

     add environment contribution to local potential
     Polarization accuracy = 4.9E-13, # of iterations =  39

     total cpu time spent up to now is    13807.1 secs

     total energy              =   -3432.29001294 Ry
     estimated scf accuracy    <          1.3E-10 Ry
     electrostatic embedding   =      -0.06475373 Ry
     cavitation energy         =       0.02111483 Ry
     PV energy                 =      -0.08309549 Ry
     correction to one-el term =     205.93556501 Ry

     iteration # 52     ecut=    50.00 Ry     beta= 0.70
     Davidson diagonalization with overlap
     ethr =  1.00E-13,  avg # of iterations =  2.0

     negative rho (up, down):  1.385E-04 0.000E+00

     add environment contribution to local potential
     Polarization accuracy = 5.8E-13, # of iterations =  39

     total cpu time spent up to now is    14102.1 secs

     total energy              =   -3432.29001304 Ry
     estimated scf accuracy    <          1.2E-10 Ry
     electrostatic embedding   =      -0.06475538 Ry
     cavitation energy         =       0.02111483 Ry
     PV energy                 =      -0.08309547 Ry
     correction to one-el term =     205.93538560 Ry

     iteration # 53     ecut=    50.00 Ry     beta= 0.70
     Davidson diagonalization with overlap
     ethr =  1.00E-13,  avg # of iterations =  2.0

     negative rho (up, down):  1.378E-04 0.000E+00

     the potential shift due to the Gaussian-smeared nuclei is    -1.3393 ev

     total cpu time spent up to now is    14355.1 secs

     End of self-consistent calculation

          k = 0.2500 0.2763 0.0000 ( 34692 PWs)   bands (ev):

   -78.3918 -78.3886 -78.3794 -78.3762 -78.1803 -78.1766 -78.1677 -78.1640
   -78.0784 -78.0751 -77.9693 -77.9655 -48.8164 -48.8120 -48.8039 -48.7996
   -48.5806 -48.5764 -48.3263 -48.3232 -48.3136 -48.3106 -48.2008 -48.1917
   -48.1885 -48.1801 -48.1792 -48.1678 -48.1586 -48.1459 -48.1354 -48.1233
   -48.0993 -48.0961 -48.0790 -48.0663 -48.0225 -47.9784 -47.9660 -47.9657
   -47.9534 -47.9415 -47.9148 -47.8714 -47.8606 -47.8458 -47.7844 -47.7714
   -24.6274 -24.4727 -24.4310 -24.2211 -24.1157 -24.0981 -23.4569 -23.4473
   -23.3490 -23.3347 -23.2544 -23.2364 -23.2081 -23.0421 -23.0118 -22.9526
   -22.9084 -22.8781 -22.6952 -22.6831 -22.4126 -22.3735 -22.3127 -22.2951
   -21.6173 -21.6022 -21.6014 -21.5702 -12.8128 -12.7854 -12.7728 -12.2636
   -12.2212 -12.2098 -11.7412 -11.7300 -11.6961 -11.6462 -11.6386 -11.6156
   -11.5716 -11.3380 -11.2763 -11.2725 -11.1735 -11.0835 -10.9612 -10.9190
   -10.8687 -10.7767 -10.7238 -10.6872 -10.4504 -10.3784 -10.3373 -10.2045
   -10.1514 -10.1230 -10.0566  -9.8288  -9.8233  -9.7550  -9.6967  -9.6838
    -9.6700  -9.6692  -9.4419  -9.3404  -9.2961  -9.2426  -9.2131  -9.0049
    -9.0033  -8.9065  -8.8487  -8.7682  -8.7535  -8.7434  -8.6872  -8.6683
    -8.5694  -8.3717  -8.2903  -8.2321  -8.2230  -7.9570  -7.9235  -7.9112
    -7.8435  -7.7613  -7.6765  -7.6547  -7.4398  -7.4330  -7.3204  -7.2642
    -7.1802  -7.0966  -6.9731  -6.9233  -6.7706  -6.7169  -6.7160  -6.6903
    -6.6634  -6.6629  -6.4734  -6.4003  -6.3407  -6.3267  -6.2482  -6.2130
    -5.4943  -5.4457  -5.4297  -5.4122  -5.3529  -5.3490  -5.3310  -5.2726
    -5.2643  -5.2439  -5.2344  -5.1617  -5.1602  -5.1407  -5.1344  -5.0319
    -5.0277  -4.9366  -4.9316  -4.8491  -4.8000  -4.7188  -4.6803  -4.6012
    -4.5105  -4.4569  -4.3058  -4.2440  -4.0008  -3.9401  -3.7777  -3.6273
    -3.5545  -3.5161  -3.3802  -3.3315  -2.8219  -2.7954  -2.3700  -2.3476
    -2.2935  -2.2472  -2.1382  -1.6887  -1.5702  -1.3542  -1.2675  -1.2216
    -1.1721  -0.7660  -0.7083  -0.6955  -0.6818  -0.6462  -0.2049   0.0955
     0.2763   0.2907

     the Fermi energy is    -4.7086 ev

!    total energy              =   -3432.29001372 Ry
     estimated scf accuracy    <          1.0E-10 Ry
     smearing contrib. (-TS)   =       0.06632903 Ry
     internal energy E=F+TS    =   -3432.35634275 Ry

     The total energy is F=E-TS. E is the sum of the following terms:
     one-electron contribution =  -24110.54762263 Ry
     hartree contribution      =   12032.05022887 Ry
     xc contribution           =    -444.88812575 Ry
     ewald contribution        =    9151.83925153 Ry
     one-center paw contrib.   =    -266.61884579 Ry
     electrostatic embedding   =      -0.06475447 Ry
     cavitation energy         =       0.02111483 Ry
     PV energy                 =      -0.08309549 Ry
     correction to one-el term =     205.93550615 Ry

     WARNING: you are using the parabolic pbc correction;
              the potential shift above must be added to 
              band and Fermi energies.

     convergence has been achieved in  53 iterations

     negative rho (up, down):  1.378E-04 0.000E+00

     Forces acting on atoms (cartesian axes, Ry/au):

     atom    1 type  1   force =     0.04939645    0.00000000   -0.03133035
     atom    2 type  1   force =     0.04939615    0.00000000   -0.03133055
     atom    3 type  1   force =    -0.00092214    0.00000000    0.10622643
     atom    4 type  1   force =    -0.00092251    0.00000000    0.10622619
     atom    5 type  2   force =     0.00025765    0.00000000   -0.08936011
     atom    6 type  2   force =     0.00025758    0.00000000   -0.08935984
     atom    7 type  1   force =     0.00086732    0.07649847    0.01033272
     atom    8 type  1   force =     0.00086750    0.07649863    0.01033266
     atom    9 type  2   force =     0.01763423    0.00000000   -0.04001723
     atom   10 type  2   force =     0.01763443    0.00000000   -0.04001710
     atom   11 type  1   force =     0.00086732   -0.07649847    0.01033272
     atom   12 type  1   force =     0.00086750   -0.07649863    0.01033266
     atom   13 type  1   force =     0.00077031    0.00000000    0.00662172
     atom   14 type  1   force =     0.00076993    0.00000000    0.00662129
     atom   15 type  1   force =     0.00375787    0.00000000   -0.01234255
     atom   16 type  1   force =     0.00375726    0.00000000   -0.01234251
     atom   17 type  2   force =     0.00041060    0.00000000    0.00000000
     atom   18 type  2   force =     0.00041101    0.00000000    0.00000000
     atom   19 type  1   force =    -0.00041892   -0.07309412    0.00000000
     atom   20 type  1   force =    -0.00041815   -0.07309451    0.00000000
     atom   21 type  2   force =    -0.00535218    0.00000000    0.00000000
     atom   22 type  2   force =    -0.00535219    0.00000000    0.00000000
     atom   23 type  1   force =    -0.00041892    0.07309412    0.00000000
     atom   24 type  1   force =    -0.00041815    0.07309451    0.00000000
     atom   25 type  1   force =     0.00375787    0.00000000    0.01234255
     atom   26 type  1   force =     0.00375726    0.00000000    0.01234251
     atom   27 type  1   force =     0.00077031    0.00000000   -0.00662172
     atom   28 type  1   force =     0.00076993    0.00000000   -0.00662129
     atom   29 type  2   force =     0.00025765    0.00000000    0.08936011
     atom   30 type  2   force =     0.00025758    0.00000000    0.08935984
     atom   31 type  1   force =     0.00086732    0.07649847   -0.01033272
     atom   32 type  1   force =     0.00086750    0.07649863   -0.01033266
     atom   33 type  2   force =     0.01763423    0.00000000    0.04001723
     atom   34 type  2   force =     0.01763443    0.00000000    0.04001710
     atom   35 type  1   force =     0.00086732   -0.07649847   -0.01033272
     atom   36 type  1   force =     0.00086750   -0.07649863   -0.01033266
     atom   37 type  1   force =    -0.00092214    0.00000000   -0.10622643
     atom   38 type  1   force =    -0.00092251    0.00000000   -0.10622619
     atom   39 type  1   force =     0.04939645    0.00000000    0.03133035
     atom   40 type  1   force =     0.04939615    0.00000000    0.03133055
     atom   41 type  3   force =    -0.06973916    0.00000000    0.10784807
     atom   42 type  3   force =    -0.06973916    0.00000000   -0.10784807
     atom   43 type  3   force =    -0.06973924    0.00000000    0.10784817
     atom   44 type  3   force =    -0.06973924    0.00000000   -0.10784817
     The non-local contrib.  to forces
     atom    1 type  1   force =     1.48666394    0.00000000   -0.14680498
     atom    2 type  1   force =     1.48666364    0.00000000   -0.14680508
     atom    3 type  1   force =     0.00106834    0.00000000    1.14173511
     atom    4 type  1   force =     0.00106810    0.00000000    1.14173501
     atom    5 type  2   force =    -0.00097267    0.00000000   -0.01642297
     atom    6 type  2   force =    -0.00097259    0.00000000   -0.01642296
     atom    7 type  1   force =    -0.00862471   -0.06193946    0.07953586
     atom    8 type  1   force =    -0.00862458   -0.06193944    0.07953580
     atom    9 type  2   force =    -0.00544966    0.00000000    0.03045965
     atom   10 type  2   force =    -0.00544978    0.00000000    0.03045972
     atom   11 type  1   force =    -0.00862471    0.06193946    0.07953586
     atom   12 type  1   force =    -0.00862458    0.06193944    0.07953580
     atom   13 type  1   force =    -0.00038913    0.00000000    0.04308559
     atom   14 type  1   force =    -0.00038930    0.00000000    0.04308564
     atom   15 type  1   force =    -0.00310185    0.00000000    0.00894605
     atom   16 type  1   force =    -0.00310182    0.00000000    0.00894595
     atom   17 type  2   force =    -0.00092996    0.00000000    0.00000000
     atom   18 type  2   force =    -0.00093001    0.00000000    0.00000000
     atom   19 type  1   force =     0.00004925    0.06245101    0.00000000
     atom   20 type  1   force =     0.00004940    0.06245091    0.00000000
     atom   21 type  2   force =     0.01525120    0.00000000    0.00000000
     atom   22 type  2   force =     0.01525105    0.00000000    0.00000000
     atom   23 type  1   force =     0.00004925   -0.06245101    0.00000000
     atom   24 type  1   force =     0.00004940   -0.06245091    0.00000000
     atom   25 type  1   force =    -0.00310185    0.00000000   -0.00894605
     atom   26 type  1   force =    -0.00310182    0.00000000   -0.00894595
     atom   27 type  1   force =    -0.00038913    0.00000000   -0.04308559
     atom   28 type  1   force =    -0.00038930    0.00000000   -0.04308564
     atom   29 type  2   force =    -0.00097267    0.00000000    0.01642297
     atom   30 type  2   force =    -0.00097259    0.00000000    0.01642296
     atom   31 type  1   force =    -0.00862471   -0.06193946   -0.07953586
     atom   32 type  1   force =    -0.00862458   -0.06193944   -0.07953580
     atom   33 type  2   force =    -0.00544966    0.00000000   -0.03045965
     atom   34 type  2   force =    -0.00544978    0.00000000   -0.03045972
     atom   35 type  1   force =    -0.00862471    0.06193946   -0.07953586
     atom   36 type  1   force =    -0.00862458    0.06193944   -0.07953580
     atom   37 type  1   force =     0.00106834    0.00000000   -1.14173511
     atom   38 type  1   force =     0.00106810    0.00000000   -1.14173501
     atom   39 type  1   force =     1.48666394    0.00000000    0.14680498
     atom   40 type  1   force =     1.48666364    0.00000000    0.14680508
     atom   41 type  3   force =    -0.05308645    0.00000000    0.05716008
     atom   42 type  3   force =    -0.05308645    0.00000000   -0.05716008
     atom   43 type  3   force =    -0.05308644    0.00000000    0.05716007
     atom   44 type  3   force =    -0.05308644    0.00000000   -0.05716007
     The ionic contribution  to forces
     atom    1 type  1   force =    -1.74739201    0.00000011  -91.81559372
     atom    2 type  1   force =    -1.74739201    0.00000011  -91.81559372
     atom    3 type  1   force =    -0.01320779   -0.00000022  -92.19369659
     atom    4 type  1   force =    -0.01320779   -0.00000022  -92.19369659
     atom    5 type  2   force =     0.00783247   -0.00000201 -168.81709023
     atom    6 type  2   force =     0.00783247   -0.00000201 -168.81709023
     atom    7 type  1   force =     0.01307577    0.79258562  -62.91469752
     atom    8 type  1   force =     0.01307577    0.79258562  -62.91469752
     atom    9 type  2   force =    -0.05612469    0.00000254 -166.82047099
     atom   10 type  2   force =    -0.05612469    0.00000254 -166.82047099
     atom   11 type  1   force =     0.01307577   -0.79258519  -62.91469561
     atom   12 type  1   force =     0.01307577   -0.79258519  -62.91469561
     atom   13 type  1   force =    -0.00042575   -0.00000169  -36.99189466
     atom   14 type  1   force =    -0.00042575   -0.00000169  -36.99189466
     atom   15 type  1   force =    -0.00034601    0.00000878  -26.04085649
     atom   16 type  1   force =    -0.00034601    0.00000878  -26.04085649
     atom   17 type  2   force =    -0.00007178    0.00001249   -0.00042641
     atom   18 type  2   force =    -0.00007178    0.00001249   -0.00042641
     atom   19 type  1   force =     0.00003544   -1.05665113   -0.00008206
     atom   20 type  1   force =     0.00003544   -1.05665113   -0.00008206
     atom   21 type  2   force =     0.00014386    0.00012240   -0.00026139
     atom   22 type  2   force =     0.00014386    0.00012240   -0.00026139
     atom   23 type  1   force =     0.00003544    1.05650035   -0.00008206
     atom   24 type  1   force =     0.00003544    1.05650035   -0.00008206
     atom   25 type  1   force =    -0.00034603    0.00000878   26.04068262
     atom   26 type  1   force =    -0.00034603    0.00000878   26.04068262
     atom   27 type  1   force =    -0.00042576   -0.00000169   36.99217485
     atom   28 type  1   force =    -0.00042576   -0.00000169   36.99217485
     atom   29 type  2   force =     0.00783271   -0.00000201  168.81737581
     atom   30 type  2   force =     0.00783271   -0.00000201  168.81737581
     atom   31 type  1   force =     0.01307633    0.79255278   62.91476462
     atom   32 type  1   force =     0.01307633    0.79255278   62.91476462
     atom   33 type  2   force =    -0.05612729    0.00000254  166.82061404
     atom   34 type  2   force =    -0.05612729    0.00000254  166.82061404
     atom   35 type  1   force =     0.01307633   -0.79255235   62.91476271
     atom   36 type  1   force =     0.01307633   -0.79255235   62.91476271
     atom   37 type  1   force =    -0.01320833   -0.00000022   92.19375576
     atom   38 type  1   force =    -0.01320833   -0.00000022   92.19375576
     atom   39 type  1   force =    -1.74747864    0.00000011   91.81562544
     atom   40 type  1   force =    -1.74747864    0.00000011   91.81562544
     atom   41 type  3   force =     1.78344077    0.00000001  -15.77198234
     atom   42 type  3   force =     1.78352921    0.00000001   15.77207424
     atom   43 type  3   force =     1.78344077    0.00000001  -15.77198234
     atom   44 type  3   force =     1.78352921    0.00000001   15.77207424
     The local contribution  to forces
     atom    1 type  1   force =     0.29350018    0.00000000   92.02321208
     atom    2 type  1   force =     0.29350100    0.00000000   92.02321266
     atom    3 type  1   force =     0.00811403   -0.00000000   91.12583059
     atom    4 type  1   force =     0.00811781    0.00000000   91.12583094
     atom    5 type  2   force =    -0.00546070   -0.00000000  168.71100933
     atom    6 type  2   force =    -0.00546931    0.00000000  168.71101131
     atom    7 type  1   force =    -0.00292392   -0.66483996   62.84945557
     atom    8 type  1   force =    -0.00292710   -0.66484195   62.84945640
     atom    9 type  2   force =     0.07695112    0.00000000  166.77898109
     atom   10 type  2   force =     0.07695783    0.00000000  166.77898182
     atom   11 type  1   force =    -0.00292392    0.66483996   62.84945557
     atom   12 type  1   force =    -0.00292710    0.66484195   62.84945640
     atom   13 type  1   force =     0.00153194   -0.00000000   36.95222066
     atom   14 type  1   force =     0.00153696   -0.00000000   36.95222557
     atom   15 type  1   force =     0.00714829    0.00000000   26.02008685
     atom   16 type  1   force =     0.00715582    0.00000000   26.02008757
     atom   17 type  2   force =     0.00140249   -0.00000000   -0.00588192
     atom   18 type  2   force =     0.00141255   -0.00000000   -0.00588192
     atom   19 type  1   force =    -0.00049290    0.91945869   -0.00247146
     atom   20 type  1   force =    -0.00050497    0.91946310   -0.00247146
     atom   21 type  2   force =    -0.02073338    0.00000000   -0.00606088
     atom   22 type  2   force =    -0.02074473    0.00000000   -0.00606088
     atom   23 type  1   force =    -0.00049292   -0.91979679   -0.00247146
     atom   24 type  1   force =    -0.00050499   -0.91980120   -0.00247146
     atom   25 type  1   force =     0.00714646   -0.00000000  -26.02184525
     atom   26 type  1   force =     0.00715399    0.00000000  -26.02184597
     atom   27 type  1   force =     0.00153197    0.00000000  -36.95398576
     atom   28 type  1   force =     0.00153698   -0.00000000  -36.95399068
     atom   29 type  2   force =    -0.00546098   -0.00000000 -168.71709336
     atom   30 type  2   force =    -0.00546959   -0.00000000 -168.71709535
     atom   31 type  1   force =    -0.00292342   -0.66483588  -62.85192270
     atom   32 type  1   force =    -0.00292661   -0.66483786  -62.85192354
     atom   33 type  2   force =     0.07694717    0.00000000 -166.78483591
     atom   34 type  2   force =     0.07695388    0.00000000 -166.78483663
     atom   35 type  1   force =    -0.00292342    0.66483588  -62.85192270
     atom   36 type  1   force =    -0.00292661    0.66483786  -62.85192354
     atom   37 type  1   force =     0.00811441   -0.00000000  -91.12954311
     atom   38 type  1   force =     0.00811819    0.00000000  -91.12954346
     atom   39 type  1   force =     0.29353367    0.00000000  -92.02472096
     atom   40 type  1   force =     0.29353449   -0.00000000  -92.02472155
     atom   41 type  3   force =    -1.81712070    0.00000000   15.87418063
     atom   42 type  3   force =    -1.81712070   -0.00000000  -15.87418063
     atom   43 type  3   force =    -1.81712104    0.00000000   15.87418098
     atom   44 type  3   force =    -1.81712104    0.00000000  -15.87418098
     The core correction contribution to forces
     atom    1 type  1   force =    -0.01673884    0.00000000    0.00152365
     atom    2 type  1   force =    -0.01673884    0.00000000    0.00152365
     atom    3 type  1   force =    -0.00001325    0.00000000   -0.01262005
     atom    4 type  1   force =    -0.00001325    0.00000000   -0.01262005
     atom    5 type  2   force =     0.00000000    0.00000000    0.00000000
     atom    6 type  2   force =     0.00000000    0.00000000    0.00000000
     atom    7 type  1   force =     0.00012901   -0.00073423   -0.00088800
     atom    8 type  1   force =     0.00012901   -0.00073423   -0.00088800
     atom    9 type  2   force =     0.00000000    0.00000000    0.00000000
     atom   10 type  2   force =     0.00000000    0.00000000    0.00000000
     atom   11 type  1   force =     0.00012901    0.00073423   -0.00088800
     atom   12 type  1   force =     0.00012901    0.00073423   -0.00088800
     atom   13 type  1   force =     0.00000663   -0.00000000   -0.00061648
     atom   14 type  1   force =     0.00000662   -0.00000000   -0.00061649
     atom   15 type  1   force =     0.00003810    0.00000000   -0.00016240
     atom   16 type  1   force =     0.00003809    0.00000000   -0.00016240
     atom   17 type  2   force =     0.00000000    0.00000000    0.00000000
     atom   18 type  2   force =     0.00000000    0.00000000    0.00000000
     atom   19 type  1   force =    -0.00000127    0.00070401   -0.00000221
     atom   20 type  1   force =    -0.00000126    0.00070401   -0.00000221
     atom   21 type  2   force =     0.00000000    0.00000000    0.00000000
     atom   22 type  2   force =     0.00000000    0.00000000    0.00000000
     atom   23 type  1   force =    -0.00000127   -0.00070448   -0.00000221
     atom   24 type  1   force =    -0.00000126   -0.00070448   -0.00000221
     atom   25 type  1   force =     0.00003803   -0.00000000    0.00015992
     atom   26 type  1   force =     0.00003802   -0.00000000    0.00015992
     atom   27 type  1   force =     0.00000663   -0.00000000    0.00061397
     atom   28 type  1   force =     0.00000662   -0.00000000    0.00061397
     atom   29 type  2   force =     0.00000000    0.00000000    0.00000000
     atom   30 type  2   force =     0.00000000    0.00000000    0.00000000
     atom   31 type  1   force =     0.00012904   -0.00073422    0.00088593
     atom   32 type  1   force =     0.00012905   -0.00073422    0.00088593
     atom   33 type  2   force =     0.00000000    0.00000000    0.00000000
     atom   34 type  2   force =     0.00000000    0.00000000    0.00000000
     atom   35 type  1   force =     0.00012904    0.00073422    0.00088593
     atom   36 type  1   force =     0.00012905    0.00073422    0.00088593
     atom   37 type  1   force =    -0.00001325    0.00000000    0.01261498
     atom   38 type  1   force =    -0.00001325    0.00000000    0.01261498
     atom   39 type  1   force =    -0.01673993   -0.00000000   -0.00152663
     atom   40 type  1   force =    -0.01673993   -0.00000000   -0.00152663
     atom   41 type  3   force =     0.00000000    0.00000000    0.00000000
     atom   42 type  3   force =     0.00000000    0.00000000    0.00000000
     atom   43 type  3   force =     0.00000000    0.00000000    0.00000000
     atom   44 type  3   force =     0.00000000    0.00000000    0.00000000
     The Hubbard contrib.    to forces
     atom    1 type  1   force =     0.00000000    0.00000000    0.00000000
     atom    2 type  1   force =     0.00000000    0.00000000    0.00000000
     atom    3 type  1   force =     0.00000000    0.00000000    0.00000000
     atom    4 type  1   force =     0.00000000    0.00000000    0.00000000
     atom    5 type  2   force =     0.00000000    0.00000000    0.00000000
     atom    6 type  2   force =     0.00000000    0.00000000    0.00000000
     atom    7 type  1   force =     0.00000000    0.00000000    0.00000000
     atom    8 type  1   force =     0.00000000    0.00000000    0.00000000
     atom    9 type  2   force =     0.00000000    0.00000000    0.00000000
     atom   10 type  2   force =     0.00000000    0.00000000    0.00000000
     atom   11 type  1   force =     0.00000000    0.00000000    0.00000000
     atom   12 type  1   force =     0.00000000    0.00000000    0.00000000
     atom   13 type  1   force =     0.00000000    0.00000000    0.00000000
     atom   14 type  1   force =     0.00000000    0.00000000    0.00000000
     atom   15 type  1   force =     0.00000000    0.00000000    0.00000000
     atom   16 type  1   force =     0.00000000    0.00000000    0.00000000
     atom   17 type  2   force =     0.00000000    0.00000000    0.00000000
     atom   18 type  2   force =     0.00000000    0.00000000    0.00000000
     atom   19 type  1   force =     0.00000000    0.00000000    0.00000000
     atom   20 type  1   force =     0.00000000    0.00000000    0.00000000
     atom   21 type  2   force =     0.00000000    0.00000000    0.00000000
     atom   22 type  2   force =     0.00000000    0.00000000    0.00000000
     atom   23 type  1   force =     0.00000000    0.00000000    0.00000000
     atom   24 type  1   force =     0.00000000    0.00000000    0.00000000
     atom   25 type  1   force =     0.00000000    0.00000000    0.00000000
     atom   26 type  1   force =     0.00000000    0.00000000    0.00000000
     atom   27 type  1   force =     0.00000000    0.00000000    0.00000000
     atom   28 type  1   force =     0.00000000    0.00000000    0.00000000
     atom   29 type  2   force =     0.00000000    0.00000000    0.00000000
     atom   30 type  2   force =     0.00000000    0.00000000    0.00000000
     atom   31 type  1   force =     0.00000000    0.00000000    0.00000000
     atom   32 type  1   force =     0.00000000    0.00000000    0.00000000
     atom   33 type  2   force =     0.00000000    0.00000000    0.00000000
     atom   34 type  2   force =     0.00000000    0.00000000    0.00000000
     atom   35 type  1   force =     0.00000000    0.00000000    0.00000000
     atom   36 type  1   force =     0.00000000    0.00000000    0.00000000
     atom   37 type  1   force =     0.00000000    0.00000000    0.00000000
     atom   38 type  1   force =     0.00000000    0.00000000    0.00000000
     atom   39 type  1   force =     0.00000000    0.00000000    0.00000000
     atom   40 type  1   force =     0.00000000    0.00000000    0.00000000
     atom   41 type  3   force =     0.00000000    0.00000000    0.00000000
     atom   42 type  3   force =     0.00000000    0.00000000    0.00000000
     atom   43 type  3   force =     0.00000000    0.00000000    0.00000000
     atom   44 type  3   force =     0.00000000    0.00000000    0.00000000
     The SCF correction term to forces
     atom    1 type  1   force =     0.00000030    0.00000000    0.00000155
     atom    2 type  1   force =    -0.00000047    0.00000000    0.00000082
     atom    3 type  1   force =     0.00000196   -0.00000000    0.00000200
     atom    4 type  1   force =    -0.00000195   -0.00000000    0.00000152
     atom    5 type  2   force =    -0.00000417   -0.00000000    0.00000898
     atom    6 type  2   force =     0.00000428   -0.00000000    0.00000726
     atom    7 type  1   force =    -0.00000158   -0.00000245    0.00000405
     atom    8 type  1   force =     0.00000164   -0.00000032    0.00000321
     atom    9 type  2   force =     0.00000302    0.00000000    0.00001197
     atom   10 type  2   force =    -0.00000336    0.00000000    0.00001129
     atom   11 type  1   force =    -0.00000158    0.00000245    0.00000405
     atom   12 type  1   force =     0.00000164    0.00000032    0.00000321
     atom   13 type  1   force =     0.00000261   -0.00000000    0.00000680
     atom   14 type  1   force =    -0.00000262   -0.00000000    0.00000140
     atom   15 type  1   force =     0.00000405    0.00000000    0.00000747
     atom   16 type  1   force =    -0.00000410    0.00000000    0.00000690
     atom   17 type  2   force =     0.00000478   -0.00000001    0.00001566
     atom   18 type  2   force =    -0.00000482   -0.00000001    0.00001566
     atom   19 type  1   force =    -0.00000633    0.00000419    0.00000583
     atom   20 type  1   force =     0.00000634   -0.00000051    0.00000583
     atom   21 type  2   force =    -0.00000564    0.00000001    0.00001555
     atom   22 type  2   force =     0.00000584    0.00000001    0.00001555
     atom   23 type  1   force =    -0.00000633   -0.00000419    0.00000583
     atom   24 type  1   force =     0.00000634    0.00000051    0.00000583
     atom   25 type  1   force =     0.00000405    0.00000000    0.00000318
     atom   26 type  1   force =    -0.00000410    0.00000000    0.00000376
     atom   27 type  1   force =     0.00000261   -0.00000000    0.00000219
     atom   28 type  1   force =    -0.00000262   -0.00000000    0.00000758
     atom   29 type  2   force =    -0.00000417   -0.00000000    0.00000268
     atom   30 type  2   force =     0.00000428   -0.00000000    0.00000440
     atom   31 type  1   force =    -0.00000158   -0.00000241    0.00000034
     atom   32 type  1   force =     0.00000164   -0.00000028    0.00000118
     atom   33 type  2   force =     0.00000303    0.00000000   -0.00000007
     atom   34 type  2   force =    -0.00000335    0.00000000    0.00000062
     atom   35 type  1   force =    -0.00000158    0.00000242    0.00000034
     atom   36 type  1   force =     0.00000164    0.00000028    0.00000118
     atom   37 type  1   force =     0.00000196   -0.00000000   -0.00000305
     atom   38 type  1   force =    -0.00000195   -0.00000000   -0.00000257
     atom   39 type  1   force =     0.00000035    0.00000000   -0.00000466
     atom   40 type  1   force =    -0.00000042    0.00000000   -0.00000393
     atom   41 type  3   force =     0.00000001    0.00000000   -0.00000005
     atom   42 type  3   force =    -0.00000005    0.00000000   -0.00000073
     atom   43 type  3   force =     0.00000026    0.00000000   -0.00000032
     atom   44 type  3   force =     0.00000020    0.00000000   -0.00000047

     Total force =     0.484092     Total SCF correction =     0.000050

     BFGS Geometry Optimization
     Energy error            =      0.0E+00 Ry
     Gradient error          =      1.1E-01 Ry/Bohr

     number of scf cycles    =   1
     number of bfgs steps    =   0

     energy             new  =   -3432.2900137157 Ry

     new trust radius        =       0.1284320440 bohr
     new conv_thr            =            1.0E-10 Ry


ATOMIC_POSITIONS (crystal)
O             0.0039870204        0.5000000000        0.2600599235
O             0.5039869962        0.5000000000        0.2600599188
O            -0.0000744306        0.0000000000        0.2967057644
O             0.4999255400        0.0000000000        0.2967057586
Ru            0.2500207964        0.0000000000        0.3495214919
Ru            0.7500207903        0.0000000000        0.3495214983
O             0.2500700057        0.3130394713        0.3519050446
O             0.7500700197        0.3130394855        0.3519050432
Ru            0.0014233419        0.5000000000        0.3507012293
Ru            0.5014233580        0.5000000000        0.3507012323
O             0.2500700057        0.6869605287        0.3519050446
O             0.7500700197        0.6869605145        0.3519050432
O             0.0000621753        0.0000000000        0.4093093185
O             0.5000621443        0.0000000000        0.4093093081
O             0.0003033154        0.5000000000        0.4422129022
O             0.5003032663        0.5000000000        0.4422129033
Ru            0.0000331415        0.0000000000        0.5000010000
Ru            0.5000331746        0.0000000000        0.5000010000
O             0.2499661866        0.1872642327        0.5000010000
O             0.7499662489        0.1872641976        0.5000010000
Ru            0.2495680003        0.5000000000        0.5000010000
Ru            0.7495679997        0.5000000000        0.5000010000
O             0.2499661866        0.8127367673        0.5000010000
O             0.7499662489        0.8127368024        0.5000010000
O             0.0003033154        0.5000000000        0.5577880978
O             0.5003032663        0.5000000000        0.5577880967
O             0.0000621753        0.0000000000        0.5906916815
O             0.5000621443        0.0000000000        0.5906916919
Ru            0.2500207964        0.0000000000        0.6504795081
Ru            0.7500207903        0.0000000000        0.6504795017
O             0.2500700057        0.3130394713        0.6480959554
O             0.7500700197        0.3130394855        0.6480959568
Ru            0.0014233419        0.5000000000        0.6492997707
Ru            0.5014233580        0.5000000000        0.6492997677
O             0.2500700057        0.6869605287        0.6480959554
O             0.7500700197        0.6869605145        0.6480959568
O            -0.0000744306        0.0000000000        0.7032962356
O             0.4999255400        0.0000000000        0.7032962414
O             0.0039870204        0.5000000000        0.7399410765
O             0.5039869962        0.5000000000        0.7399410812
H             0.1120060244        0.5000000000        0.2295015362
H             0.1120060244        0.5000000000        0.7704984638
H             0.6120060172        0.5000000000        0.2295015386
H             0.6120060172        0.5000000000        0.7704984614



     Writing config-only to output data dir /storage/home/mgm6007/ixd4/Maria/Strain1_Files/RuO2-110-0-01/RuO2-110-0-01.save/
     NEW-OLD atomic charge density approx. for the potential

     Check: negative core charge=   -0.000001

     negative rho (up, down):  3.185E-03 0.000E+00

     add environment contribution to local potential
     Polarization accuracy = 8.8E-12, # of iterations =  45

     total cpu time spent up to now is    14655.6 secs

     per-process dynamical memory:   202.4 Mb

     Self-consistent Calculation

     iteration #  1     ecut=    50.00 Ry     beta= 0.70
     Davidson diagonalization with overlap
     ethr =  1.00E-06,  avg # of iterations = 13.0

     negative rho (up, down):  2.202E-03 0.000E+00

     total cpu time spent up to now is    14945.7 secs

     total energy              =   -3432.39933401 Ry
     estimated scf accuracy    <       0.21159437 Ry
     electrostatic embedding   =      -0.08264642 Ry
     cavitation energy         =       0.02077344 Ry
     PV energy                 =      -0.08242031 Ry
     correction to one-el term =     204.75975475 Ry

     iteration #  2     ecut=    50.00 Ry     beta= 0.70
     Davidson diagonalization with overlap
     ethr =  5.81E-05,  avg # of iterations =  2.0

     negative rho (up, down):  1.372E-03 0.000E+00

     total cpu time spent up to now is    15231.6 secs

     total energy              =   -3432.42514122 Ry
     estimated scf accuracy    <       0.50229193 Ry
     electrostatic embedding   =      -0.08067616 Ry
     cavitation energy         =       0.02078945 Ry
     PV energy                 =      -0.08250947 Ry
     correction to one-el term =     204.75129265 Ry

     iteration #  3     ecut=    50.00 Ry     beta= 0.70
     Davidson diagonalization with overlap
     ethr =  5.81E-05,  avg # of iterations =  1.0

     negative rho (up, down):  1.584E-03 0.000E+00

     add environment contribution to local potential
     Polarization accuracy = 1.4E-12, # of iterations =  38

     total cpu time spent up to now is    15495.4 secs

     total energy              =   -3432.44702433 Ry
     estimated scf accuracy    <       0.01914464 Ry
     electrostatic embedding   =      -0.08021594 Ry
     cavitation energy         =       0.02078965 Ry
     PV energy                 =      -0.08261607 Ry
     correction to one-el term =     204.74869798 Ry

     iteration #  4     ecut=    50.00 Ry     beta= 0.70
     Davidson diagonalization with overlap
     ethr =  5.26E-06,  avg # of iterations =  2.0

     negative rho (up, down):  2.011E-03 0.000E+00

     add environment contribution to local potential
     Polarization accuracy = 8.2E-12, # of iterations =  38

     total cpu time spent up to now is    15779.5 secs

[...]
     atom   40 type  1   force =    -2.91622464    0.00000015   96.86777675
     atom   41 type  3   force =     2.78967802    0.00000002  -16.70043982
     atom   42 type  3   force =     2.78977158    0.00000002   16.70046639
     atom   43 type  3   force =     2.78967733    0.00000002  -16.70044277
     atom   44 type  3   force =     2.78977088    0.00000002   16.70046933
     The local contribution  to forces
     atom    1 type  1   force =     1.13277015   -0.00000000   96.58816519
     atom    2 type  1   force =     1.13276503   -0.00000000   96.58816669
     atom    3 type  1   force =     0.00324444    0.00000000   93.75717619
     atom    4 type  1   force =     0.00323927   -0.00000000   93.75717475
     atom    5 type  2   force =    -0.03860774    0.00000000  178.30811999
     atom    6 type  2   force =    -0.03860640    0.00000000  178.30812490
     atom    7 type  1   force =    -0.06048048    1.06324166   63.93162813
     atom    8 type  1   force =    -0.06048145    1.06324133   63.93163417
     atom    9 type  2   force =     0.08004674   -0.00000000  170.71094361
     atom   10 type  2   force =     0.08003654   -0.00000000  170.71093300
     atom   11 type  1   force =    -0.06048048   -1.06324166   63.93162813
     atom   12 type  1   force =    -0.06048145   -1.06324133   63.93163417
     atom   13 type  1   force =     0.02300586   -0.00000000   39.04627853
     atom   14 type  1   force =     0.02300516   -0.00000000   39.04627935
     atom   15 type  1   force =     0.09856004   -0.00000000   25.52861515
     atom   16 type  1   force =     0.09855762   -0.00000000   25.52861224
     atom   17 type  2   force =     0.07524180    0.00000000   -0.00590935
     atom   18 type  2   force =     0.07524209   -0.00000000   -0.00590935
     atom   19 type  1   force =    -0.01221835   -0.16102200   -0.00248344
     atom   20 type  1   force =    -0.01221874   -0.16102311   -0.00248344
     atom   21 type  2   force =    -0.35986389   -0.00000000   -0.00606261
     atom   22 type  2   force =    -0.35986516   -0.00000000   -0.00606261
     atom   23 type  1   force =    -0.01221936    0.16067761   -0.00248344
     atom   24 type  1   force =    -0.01221975    0.16067873   -0.00248344
     atom   25 type  1   force =     0.09855224   -0.00000000  -25.53037520
     atom   26 type  1   force =     0.09854983   -0.00000000  -25.53037229
     atom   27 type  1   force =     0.02300598    0.00000000  -39.04803800
     atom   28 type  1   force =     0.02300528   -0.00000000  -39.04803882
     atom   29 type  2   force =    -0.03860757    0.00000000 -178.31426368
     atom   30 type  2   force =    -0.03860623    0.00000000 -178.31426858
     atom   31 type  1   force =    -0.06047842    1.06321562  -63.93410299
     atom   32 type  1   force =    -0.06047939    1.06321529  -63.93410902
     atom   33 type  2   force =     0.08003352   -0.00000000 -170.71678008
     atom   34 type  2   force =     0.08002332   -0.00000000 -170.71676947
     atom   35 type  1   force =    -0.06047842   -1.06321562  -63.93410299
     atom   36 type  1   force =    -0.06047939   -1.06321529  -63.93410902
     atom   37 type  1   force =     0.00324365    0.00000000  -93.76109924
     atom   38 type  1   force =     0.00323849   -0.00000000  -93.76109780
     atom   39 type  1   force =     1.13279567   -0.00000000  -96.58970547
     atom   40 type  1   force =     1.13279055   -0.00000000  -96.58970697
     atom   41 type  3   force =    -2.70505335   -0.00000000   16.67008307
     atom   42 type  3   force =    -2.70505335   -0.00000000  -16.67008307
     atom   43 type  3   force =    -2.70505272   -0.00000000   16.67008600
     atom   44 type  3   force =    -2.70505272   -0.00000000  -16.67008600
     The core correction contribution to forces
     atom    1 type  1   force =    -0.01792822   -0.00000000   -0.00320421
     atom    2 type  1   force =    -0.01792822   -0.00000000   -0.00320418
     atom    3 type  1   force =    -0.00003342   -0.00000000   -0.01074981
     atom    4 type  1   force =    -0.00003342   -0.00000000   -0.01074980
     atom    5 type  2   force =     0.00000000    0.00000000    0.00000000
     atom    6 type  2   force =     0.00000000    0.00000000    0.00000000
     atom    7 type  1   force =     0.00022664    0.00078233    0.00015321
     atom    8 type  1   force =     0.00022664    0.00078233    0.00015321
     atom    9 type  2   force =     0.00000000    0.00000000    0.00000000
     atom   10 type  2   force =     0.00000000    0.00000000    0.00000000
     atom   11 type  1   force =     0.00022664   -0.00078233    0.00015321
     atom   12 type  1   force =     0.00022664   -0.00078233    0.00015321
     atom   13 type  1   force =    -0.00000977   -0.00000000   -0.00062096
     atom   14 type  1   force =    -0.00000977   -0.00000000   -0.00062096
     atom   15 type  1   force =     0.00005988    0.00000000   -0.00027118
     atom   16 type  1   force =     0.00005988    0.00000000   -0.00027118
     atom   17 type  2   force =     0.00000000    0.00000000    0.00000000
     atom   18 type  2   force =     0.00000000    0.00000000    0.00000000
     atom   19 type  1   force =    -0.00009243   -0.00026578   -0.00000215
     atom   20 type  1   force =    -0.00009243   -0.00026578   -0.00000215
     atom   21 type  2   force =     0.00000000    0.00000000    0.00000000
     atom   22 type  2   force =     0.00000000    0.00000000    0.00000000
     atom   23 type  1   force =    -0.00009243    0.00026530   -0.00000215
     atom   24 type  1   force =    -0.00009243    0.00026530   -0.00000215
     atom   25 type  1   force =     0.00005985   -0.00000000    0.00026907
     atom   26 type  1   force =     0.00005985   -0.00000000    0.00026906
     atom   27 type  1   force =    -0.00000977   -0.00000000    0.00061850
     atom   28 type  1   force =    -0.00000977   -0.00000000    0.00061850
     atom   29 type  2   force =     0.00000000    0.00000000    0.00000000
     atom   30 type  2   force =     0.00000000    0.00000000    0.00000000
     atom   31 type  1   force =     0.00022666    0.00078218   -0.00015510
     atom   32 type  1   force =     0.00022666    0.00078218   -0.00015510
     atom   33 type  2   force =     0.00000000    0.00000000    0.00000000
     atom   34 type  2   force =     0.00000000    0.00000000    0.00000000
     atom   35 type  1   force =     0.00022666   -0.00078218   -0.00015510
     atom   36 type  1   force =     0.00022666   -0.00078218   -0.00015510
     atom   37 type  1   force =    -0.00003342   -0.00000000    0.01074507
     atom   38 type  1   force =    -0.00003342   -0.00000000    0.01074506
     atom   39 type  1   force =    -0.01792902   -0.00000000    0.00320185
     atom   40 type  1   force =    -0.01792901   -0.00000000    0.00320183
     atom   41 type  3   force =     0.00000000    0.00000000    0.00000000
     atom   42 type  3   force =     0.00000000    0.00000000    0.00000000
     atom   43 type  3   force =     0.00000000    0.00000000    0.00000000
     atom   44 type  3   force =     0.00000000    0.00000000    0.00000000
     The Hubbard contrib.    to forces
     atom    1 type  1   force =     0.00000000    0.00000000    0.00000000
     atom    2 type  1   force =     0.00000000    0.00000000    0.00000000
     atom    3 type  1   force =     0.00000000    0.00000000    0.00000000
     atom    4 type  1   force =     0.00000000    0.00000000    0.00000000
     atom    5 type  2   force =     0.00000000    0.00000000    0.00000000
     atom    6 type  2   force =     0.00000000    0.00000000    0.00000000
     atom    7 type  1   force =     0.00000000    0.00000000    0.00000000
     atom    8 type  1   force =     0.00000000    0.00000000    0.00000000
     atom    9 type  2   force =     0.00000000    0.00000000    0.00000000
     atom   10 type  2   force =     0.00000000    0.00000000    0.00000000
     atom   11 type  1   force =     0.00000000    0.00000000    0.00000000
     atom   12 type  1   force =     0.00000000    0.00000000    0.00000000
     atom   13 type  1   force =     0.00000000    0.00000000    0.00000000
     atom   14 type  1   force =     0.00000000    0.00000000    0.00000000
     atom   15 type  1   force =     0.00000000    0.00000000    0.00000000
     atom   16 type  1   force =     0.00000000    0.00000000    0.00000000
     atom   17 type  2   force =     0.00000000    0.00000000    0.00000000
     atom   18 type  2   force =     0.00000000    0.00000000    0.00000000
     atom   19 type  1   force =     0.00000000    0.00000000    0.00000000
     atom   20 type  1   force =     0.00000000    0.00000000    0.00000000
     atom   21 type  2   force =     0.00000000    0.00000000    0.00000000
     atom   22 type  2   force =     0.00000000    0.00000000    0.00000000
     atom   23 type  1   force =     0.00000000    0.00000000    0.00000000
     atom   24 type  1   force =     0.00000000    0.00000000    0.00000000
     atom   25 type  1   force =     0.00000000    0.00000000    0.00000000
     atom   26 type  1   force =     0.00000000    0.00000000    0.00000000
     atom   27 type  1   force =     0.00000000    0.00000000    0.00000000
     atom   28 type  1   force =     0.00000000    0.00000000    0.00000000
     atom   29 type  2   force =     0.00000000    0.00000000    0.00000000
     atom   30 type  2   force =     0.00000000    0.00000000    0.00000000
     atom   31 type  1   force =     0.00000000    0.00000000    0.00000000
     atom   32 type  1   force =     0.00000000    0.00000000    0.00000000
     atom   33 type  2   force =     0.00000000    0.00000000    0.00000000
     atom   34 type  2   force =     0.00000000    0.00000000    0.00000000
     atom   35 type  1   force =     0.00000000    0.00000000    0.00000000
     atom   36 type  1   force =     0.00000000    0.00000000    0.00000000
     atom   37 type  1   force =     0.00000000    0.00000000    0.00000000
     atom   38 type  1   force =     0.00000000    0.00000000    0.00000000
     atom   39 type  1   force =     0.00000000    0.00000000    0.00000000
     atom   40 type  1   force =     0.00000000    0.00000000    0.00000000
     atom   41 type  3   force =     0.00000000    0.00000000    0.00000000
     atom   42 type  3   force =     0.00000000    0.00000000    0.00000000
     atom   43 type  3   force =     0.00000000    0.00000000    0.00000000
     atom   44 type  3   force =     0.00000000    0.00000000    0.00000000
     The SCF correction term to forces
     atom    1 type  1   force =     0.00000005    0.00000000   -0.00000026
     atom    2 type  1   force =     0.00000001    0.00000000   -0.00000033
     atom    3 type  1   force =    -0.00000003    0.00000000   -0.00000033
     atom    4 type  1   force =    -0.00000001   -0.00000000   -0.00000035
     atom    5 type  2   force =     0.00000003   -0.00000000   -0.00000117
     atom    6 type  2   force =     0.00000021   -0.00000000   -0.00000105
     atom    7 type  1   force =    -0.00000010   -0.00000029   -0.00000021
     atom    8 type  1   force =     0.00000005   -0.00000029   -0.00000013
     atom    9 type  2   force =     0.00000004    0.00000000   -0.00000022
     atom   10 type  2   force =     0.00000025    0.00000000   -0.00000021
     atom   11 type  1   force =    -0.00000010    0.00000029   -0.00000021
     atom   12 type  1   force =     0.00000005    0.00000029   -0.00000013
     atom   13 type  1   force =    -0.00000008   -0.00000000   -0.00000050
     atom   14 type  1   force =     0.00000005   -0.00000000   -0.00000053
     atom   15 type  1   force =    -0.00000025    0.00000000    0.00000003
     atom   16 type  1   force =     0.00000039    0.00000000    0.00000010
     atom   17 type  2   force =    -0.00000041   -0.00000000    0.00000000
     atom   18 type  2   force =     0.00000021   -0.00000000    0.00000000
     atom   19 type  1   force =    -0.00000004    0.00000019    0.00000000
     atom   20 type  1   force =     0.00000007    0.00000054    0.00000000
     atom   21 type  2   force =    -0.00000041    0.00000000    0.00000000
     atom   22 type  2   force =    -0.00000031    0.00000000    0.00000000
     atom   23 type  1   force =    -0.00000004   -0.00000019    0.00000000
     atom   24 type  1   force =     0.00000007   -0.00000054    0.00000000
     atom   25 type  1   force =    -0.00000025    0.00000000   -0.00000002
     atom   26 type  1   force =     0.00000038    0.00000000   -0.00000010
     atom   27 type  1   force =    -0.00000008   -0.00000000    0.00000051
     atom   28 type  1   force =     0.00000005   -0.00000000    0.00000053
     atom   29 type  2   force =     0.00000003   -0.00000000    0.00000118
     atom   30 type  2   force =     0.00000021   -0.00000000    0.00000105
     atom   31 type  1   force =    -0.00000010   -0.00000029    0.00000022
     atom   32 type  1   force =     0.00000005   -0.00000029    0.00000013
     atom   33 type  2   force =     0.00000004    0.00000000    0.00000022
     atom   34 type  2   force =     0.00000025    0.00000000    0.00000021
     atom   35 type  1   force =    -0.00000010    0.00000029    0.00000022
     atom   36 type  1   force =     0.00000005    0.00000029    0.00000013
     atom   37 type  1   force =    -0.00000003   -0.00000000    0.00000033
     atom   38 type  1   force =    -0.00000001   -0.00000000    0.00000035
     atom   39 type  1   force =     0.00000005    0.00000000    0.00000025
     atom   40 type  1   force =     0.00000001    0.00000000    0.00000033
     atom   41 type  3   force =     0.00000000   -0.00000000   -0.00000005
     atom   42 type  3   force =     0.00000000   -0.00000000    0.00000005
     atom   43 type  3   force =     0.00000001   -0.00000000   -0.00000006
     atom   44 type  3   force =     0.00000001   -0.00000000    0.00000006

     Total force =     0.000047     Total SCF correction =     0.000003
     Energy error            =      2.5E-08 Ry
     Gradient error          =      9.6E-06 Ry/Bohr

     bfgs converged in  48 scf cycles and  47 bfgs steps
     (criteria: energy <  1.0E-05 Ry, force <  1.0E-05 Ry/Bohr)

     End of BFGS Geometry Optimization

     Final energy             =   -3432.6027168219 Ry

     File /storage/home/mgm6007/ixd4/Maria/Strain1_Files/RuO2-110-0-01/RuO2-110-0-01.bfgs deleted, as requested
Begin final coordinates

ATOMIC_POSITIONS (crystal)
O            -0.0108607618        0.5000000000        0.2710532600
O             0.4891390945        0.5000000000        0.2710532791
O            -0.0000302688        0.0000000000        0.3064036959
O             0.4999697058        0.0000000000        0.3064037018
Ru            0.2499298849        0.0000000000        0.3532866242
Ru            0.7499298925        0.0000000000        0.3532866238
O             0.2496377870        0.3148069105        0.3580997439
O             0.7496377843        0.3148069145        0.3580997384
Ru            0.0004528069        0.5000000000        0.3579802208
Ru            0.5004528103        0.5000000000        0.3579802294
O             0.2496377870        0.6851930895        0.3580997439
O             0.7496377843        0.6851930855        0.3580997384
O             0.0000555722        0.0000000000        0.4113678363
O             0.5000555809        0.0000000000        0.4113678420
O             0.0035043630        0.5000000000        0.4457822671
O             0.5035043543        0.5000000000        0.4457822650
Ru            0.0002754089        0.0000000000        0.5000010000
Ru            0.5002754131        0.0000000000        0.5000010000
O             0.2499105700        0.1861441665        0.5000010000
O             0.7499105749        0.1861441667        0.5000010000
Ru            0.2522682532        0.5000000000        0.5000010000
Ru            0.7522682518        0.5000000000        0.5000010000
O             0.2499105700        0.8138568335        0.5000010000
O             0.7499105749        0.8138568333        0.5000010000
O             0.0035043630        0.5000000000        0.5542187329
O             0.5035043543        0.5000000000        0.5542187350
O             0.0000555722        0.0000000000        0.5886331637
O             0.5000555809        0.0000000000        0.5886331580
Ru            0.2499298849        0.0000000000        0.6467143758
Ru            0.7499298925        0.0000000000        0.6467143762
O             0.2496377870        0.3148069105        0.6419012561
O             0.7496377843        0.3148069145        0.6419012616
Ru            0.0004528069        0.5000000000        0.6420207792
Ru            0.5004528103        0.5000000000        0.6420207706
O             0.2496377870        0.6851930895        0.6419012561
O             0.7496377843        0.6851930855        0.6419012616
O            -0.0000302688        0.0000000000        0.6935983041
O             0.4999697058        0.0000000000        0.6935982982
O            -0.0108607618        0.5000000000        0.7289477400
O             0.4891390945        0.5000000000        0.7289477209
H             0.1241256363        0.5000000000        0.2519404545
H             0.1241256363        0.5000000000        0.7480595455
H             0.6241253780        0.5000000000        0.2519404082
H             0.6241253780        0.5000000000        0.7480595918
End final coordinates



     Writing all to output data dir /storage/home/mgm6007/ixd4/Maria/Strain1_Files/RuO2-110-0-01/RuO2-110-0-01.save/
 
     init_run     :    418.70s CPU    838.10s WALL (       1 calls)
     electrons    :  62264.27s CPU 163061.30s WALL (      48 calls)
     update_pot   :     79.58s CPU     79.68s WALL (      47 calls)
     forces       :     77.29s CPU     77.74s WALL (      48 calls)

     Called by init_run:
     wfcinit      :      0.46s CPU      0.48s WALL (       1 calls)
     potinit      :    298.73s CPU    585.52s WALL (       1 calls)
     hinit0       :    119.07s CPU    251.60s WALL (       1 calls)

     Called by electrons:
     c_bands      :   1053.17s CPU   1054.70s WALL (     862 calls)
     sum_band     :    222.56s CPU    222.90s WALL (     862 calls)
     v_of_rho     :     88.72s CPU     89.01s WALL (     879 calls)
     newd         :     60.37s CPU     60.47s WALL (     879 calls)
     PAW_pot      :    106.83s CPU    106.95s WALL (     926 calls)
     mix_rho      :    604.65s CPU    605.38s WALL (     862 calls)

     Called by c_bands:
     init_us_2    :     12.14s CPU     12.17s WALL (    1772 calls)
     init_us_2:cp :     12.13s CPU     12.16s WALL (    1772 calls)
     cegterg      :   1012.89s CPU   1014.26s WALL (     862 calls)

     Called by *egterg:
     cdiaghg      :    127.02s CPU    127.11s WALL (    2528 calls)
     h_psi        :    521.10s CPU    522.05s WALL (    2607 calls)
     s_psi        :     80.55s CPU     80.61s WALL (    2607 calls)
     g_psi        :      2.77s CPU      2.77s WALL (    1744 calls)

     Called by h_psi:
     h_psi:calbec :     80.80s CPU     80.89s WALL (    2607 calls)
     vloc_psi     :    352.54s CPU    353.33s WALL (    2607 calls)
     add_vuspsi   :     81.51s CPU     81.57s WALL (    2607 calls)

     General routines
     calbec       :    127.22s CPU    127.38s WALL (    3708 calls)
     fft          :  14538.31s CPU  14539.97s WALL (   11937 calls)
     ffts         :    217.04s CPU    217.20s WALL (  339854 calls)
     fftw         :    328.66s CPU    329.22s WALL ( 1004232 calls)
     interpolate  :  14470.81s CPU  14472.46s WALL (     879 calls)
 
     Parallel routines
 
     Environ routines
 
     PWSCF        :     18h21m CPU   1d23h57m WALL

 
   This run was terminated on:  10:21: 4  16Jul2023            

=------------------------------------------------------------------------------=
   JOB DONE.
=------------------------------------------------------------------------------=
