
     Program PWSCF v.7.2 starts on 26Jul2023 at 11:35:37 
        Git branch: heads/qe-7.2
        Last git commit: b4c5e8deeb7d1863e7553a87b45f8d22c21926a5
        Last git commit date: Mon Mar 27 16:12:09 2023 +0000
        Last git commit subject: Merge branch 'merge_fix_hubbard' into 'develop'

     This program is part of the open-source Quantum ESPRESSO suite
     for quantum simulation of materials; please cite
         "P. Giannozzi et al., J. Phys.:Condens. Matter 21 395502 (2009);
         "P. Giannozzi et al., J. Phys.:Condens. Matter 29 465901 (2017);
         "P. Giannozzi et al., J. Chem. Phys. 152 154105 (2020);
          URL http://www.quantum-espresso.org", 
     in publications or presentations arising from this work. More details at
     http://www.quantum-espresso.org/quote

     Parallel version (MPI), running on    20 processors

     MPI processes distributed on     1 nodes
     104275 MiB available memory on the printing compute node when the environment starts
 
     Reading input from RuO2-110-0-035.in

     Current dimensions of program PWSCF are:
     Max number of different atomic species (ntypx) = 10
     Max number of k-points (npk) =  40000
     Max angular momentum in pseudopotentials (lmaxx) =  4
 
     Reading input from environ.in:
     * Environ restarting
     * setting up water environment
     * using electronic solvent mode
     * setting boundary derivatives method to SCCS default
     
     file O.pbe-n-kjpaw_psl.0.1.UPF: wavefunction(s)  2P renormalized
     Message from routine setup:
     using ibrav=0 with symmetry is DISCOURAGED, use correct ibrav instead
 
     R & G space division:  proc/nbgrp/npool/nimage =      20
     Subspace diagonalization in iterative solution of the eigenvalue problem:
     one sub-group per band group will be used
     scalapack distributed-memory algorithm (size of sub-group:  2*  2 procs)

 
     Parallelization info
     --------------------
     sticks:   dense  smooth     PW     G-vecs:    dense   smooth      PW
     Min         276     110     29                54982    13912    1877
     Max         277     111     30                54993    13923    1888
     Sum        5537    2217    585              1099789   278381   37601
 
     Using Slab Decomposition
 


     bravais-lattice index     =            0
     lattice parameter (alat)  =      12.3824  a.u.
     unit-cell volume          =    5825.9133 (a.u.)^3
     number of atoms/cell      =           46
     number of atomic types    =            3
     number of electrons       =       366.00
     number of Kohn-Sham states=          220
     kinetic-energy cutoff     =      50.0000  Ry
     charge density cutoff     =     500.0000  Ry
     scf convergence threshold =      1.0E-09
     mixing beta               =       0.7000
     number of iterations used =            8  local-TF  mixing
     energy convergence thresh.=      1.0E-04
     force convergence thresh. =      1.0E-04
     Exchange-correlation= PBE
                           (   1   4   3   4   0   0   0)
     nstep                     =          200


     ================================================================================
 
                                  Environ Setup Summary

     ================================================================================
 
     Please cite

          O. Andreussi, I. Dabo and N. Marzari, J. Chem. Phys. 136, 064102 (2012)

     in publications or presentations arising from this work.

     ================================================================================
 
     Parameters
     ==========

     compensation onset threshold      =               0.1000E+00
     static permittivity               =                    78.30
     surface tension in input (dyn/cm) =                    47.90
     surface tension in internal units =               0.6153E-04
     external pressure in input (GPa)  =                    -0.36
     external pressure in inter. units =              -0.2447E-04

     Solvent Boundary
     ================

     solvent mode                      =               electronic
     derivatives method                =                    chain
     numerical core for derivatives    =                      fft
     switching function adopted        =                     SCCS
     density limit for vacuum region   =               0.5000E-02
     density limit for bulk solvent    =               0.1000E-03

     Electrostatic Setup
     ===================

     electrostatic problem to solve    =              generalized
     numerical solver adopted          =                       cg
     type of auxiliary density adopted =                     none
     numerical core for poisson        =                      fft
     type of pbc corrections           =                parabolic
     numerical core for corrections    =                      1da

     ================================================================================
 

     celldm(1)=  12.382447  celldm(2)=   0.000000  celldm(3)=   0.000000
     celldm(4)=   0.000000  celldm(5)=   0.000000  celldm(6)=   0.000000

     crystal axes: (cart. coord. in units of alat)
               a(1) = (   1.000000   0.000000   0.000000 )  
               a(2) = (   0.000000   0.908473   0.000000 )  
               a(3) = (   0.000000   0.000000   3.377790 )  

     reciprocal axes: (cart. coord. in units 2 pi/alat)
               b(1) = (  1.000000  0.000000  0.000000 )  
               b(2) = (  0.000000  1.100748  0.000000 )  
               b(3) = (  0.000000  0.000000  0.296052 )  


     PseudoPot. # 1 for O  read from file:
     /gpfs/group/ixd4/default/Simon/pseudopotentials/materialscloud/SSSP_1.3.0_PBE_efficiency/O.pbe-n-kjpaw_psl.0.1.UPF
     MD5 check sum: 0234752ac141de4415c5fc33072bef88
     Pseudo is Projector augmented-wave + core cor, Zval =  6.0
     Generated using "atomic" code by A. Dal Corso  v.5.0.99 svn rev. 10869
     Shape of augmentation charge: BESSEL
     Using radial grid of 1095 points,  4 beta functions with: 
                l(1) =   0
                l(2) =   0
                l(3) =   1
                l(4) =   1
     Q(r) pseudized with 0 coefficients 


     PseudoPot. # 2 for Ru read from file:
     /gpfs/group/ixd4/default/Simon/pseudopotentials/materialscloud/SSSP_1.3.0_PBE_efficiency/Ru_ONCV_PBE-1.0.oncvpsp.upf
     MD5 check sum: be037bb81c227cfb9b1461a9f099f4bd
     Pseudo is Norm-conserving, Zval = 16.0
     Generated using ONCVPSP code by D. R. Hamann
     Using radial grid of 1458 points,  6 beta functions with: 
                l(1) =   0
                l(2) =   0
                l(3) =   1
                l(4) =   1
                l(5) =   2
                l(6) =   2

     PseudoPot. # 3 for H  read from file:
     /gpfs/group/ixd4/default/Simon/pseudopotentials/materialscloud/SSSP_1.3.0_PBE_efficiency/H.pbe-rrkjus_psl.1.0.0.UPF
     MD5 check sum: f52b6d4d1c606e5624b1dc7b2218f220
     Pseudo is Ultrasoft, Zval =  1.0
     Generated using "atomic" code by A. Dal Corso  v.5.1
     Using radial grid of  929 points,  2 beta functions with: 
                l(1) =   0
                l(2) =   0
     Q(r) pseudized with 0 coefficients 


     atomic species   valence    mass     pseudopotential
        O              6.00    15.99940     O ( 1.00)
        Ru            16.00   101.07000     Ru( 1.00)
        H              1.00     1.00794     H ( 1.00)

      4 Sym. Ops. (no inversion) found



   Cartesian axes

     site n.     atom                  positions (alat units)
         1           O   tau(   1) = (   0.0178249   0.4542364   0.9134204  )
         2           O   tau(   2) = (   0.4710547   0.4542364   0.9252280  )
         3           O   tau(   3) = (  -0.0015694   0.0000000   1.0406008  )
         4           O   tau(   4) = (   0.4965735   0.0000000   0.9753034  )
         5           Ru  tau(   5) = (   0.2387225   0.0000000   1.2098388  )
         6           Ru  tau(   6) = (   0.7548744   0.0000000   1.2063258  )
         7           O   tau(   7) = (   0.2466953   0.2753666   1.2133290  )
         8           O   tau(   8) = (   0.7517147   0.2798236   1.2021777  )
         9           Ru  tau(   9) = (   0.0025688   0.4542364   1.2085404  )
        10           Ru  tau(  10) = (   0.5038405   0.4542364   1.1915836  )
        11           O   tau(  11) = (   0.2466953   0.6331062   1.2133290  )
        12           O   tau(  12) = (   0.7517147   0.6286492   1.2021777  )
        13           O   tau(  13) = (  -0.0044770   0.0000000   1.3934444  )
        14           O   tau(  14) = (   0.5009947   0.0000000   1.3902369  )
        15           O   tau(  15) = (  -0.0026601   0.4542364   1.5063413  )
        16           O   tau(  16) = (   0.4932853   0.4542364   1.4908055  )
        17           Ru  tau(  17) = (  -0.0064267   0.0000000   1.6888985  )
        18           Ru  tau(  18) = (   0.4995895   0.0000000   1.6888985  )
        19           O   tau(  19) = (   0.2499376   0.1730505   1.6888985  )
        20           O   tau(  20) = (   0.7437630   0.1797173   1.6888985  )
        21           Ru  tau(  21) = (   0.2522950   0.4542364   1.6888985  )
        22           Ru  tau(  22) = (   0.7435734   0.4542364   1.6888985  )
        23           O   tau(  23) = (   0.2499376   0.7354233   1.6888985  )
        24           O   tau(  24) = (   0.7437630   0.7287565   1.6888985  )
        25           O   tau(  25) = (  -0.0026601   0.4542364   1.8714524  )
        26           O   tau(  26) = (   0.4932853   0.4542364   1.8869882  )
        27           O   tau(  27) = (  -0.0044770   0.0000000   1.9843493  )
        28           O   tau(  28) = (   0.5009947   0.0000000   1.9875568  )
        29           Ru  tau(  29) = (   0.2387225   0.0000000   2.1679549  )
        30           Ru  tau(  30) = (   0.7548744   0.0000000   2.1714679  )
        31           O   tau(  31) = (   0.2466953   0.2753666   2.1644647  )
        32           O   tau(  32) = (   0.7517147   0.2798236   2.1756160  )
        33           Ru  tau(  33) = (   0.0025688   0.4542364   2.1692533  )
        34           Ru  tau(  34) = (   0.5038405   0.4542364   2.1862101  )
        35           O   tau(  35) = (   0.2466953   0.6331062   2.1644647  )
        36           O   tau(  36) = (   0.7517147   0.6286492   2.1756160  )
        37           O   tau(  37) = (  -0.0015694   0.0000000   2.3371963  )
        38           O   tau(  38) = (   0.4965735   0.0000000   2.4024936  )
        39           O   tau(  39) = (   0.0178249   0.4542364   2.4643733  )
        40           O   tau(  40) = (   0.4710547   0.4542364   2.4525657  )
        41           H   tau(  41) = (   0.1684170   0.4542364   0.8777439  )
        42           H   tau(  42) = (   0.1684170   0.4542364   2.5000464  )
        43           H   tau(  43) = (   0.4965745   0.1080557   0.8838464  )
        44           H   tau(  44) = (   0.4965745   0.1080557   2.4939440  )
        45           H   tau(  45) = (   0.4965745   0.8004172   0.8838464  )
        46           H   tau(  46) = (   0.4965745   0.8004172   2.4939440  )

     number of k points=     1  Marzari-Vanderbilt smearing, width (Ry)=  0.0300
                       cart. coord. in units 2pi/alat
        k(    1) = (   0.2500000   0.2751871   0.0000000), wk =   2.0000000

     Dense  grid:  1099789 G-vectors     FFT dimensions: (  90,  81, 300)

     Smooth grid:   278381 G-vectors     FFT dimensions: (  60,  54, 192)

     Estimated max dynamical RAM per process >     168.67 MB

     Estimated total dynamical RAM >       3.29 GB

     Check: negative core charge=   -0.000001

     Initial potential from superposition of free atoms

     starting charge     365.9933, renormalised to     366.0000

     add environment contribution to local potential
     Polarization accuracy = 3.6E-12, # of iterations =  24

     negative rho (up, down):  3.098E-05 0.000E+00
     Starting wfcs are  238 randomized atomic wfcs
     Checking if some PAW data can be deallocated... 

     total cpu time spent up to now is      994.2 secs

     per-process dynamical memory:   138.3 Mb

     Self-consistent Calculation

     iteration #  1     ecut=    50.00 Ry     beta= 0.70
     Davidson diagonalization with overlap
     ethr =  1.00E-02,  avg # of iterations =  2.0

     total cpu time spent up to now is     1205.1 secs

     total energy              =   -3432.53706241 Ry
     estimated scf accuracy    <      10.07895222 Ry
     electrostatic embedding   =      -0.00172671 Ry
     cavitation energy         =       0.01949195 Ry
     PV energy                 =      -0.08413135 Ry
     correction to one-el term =     220.89346455 Ry

     iteration #  2     ecut=    50.00 Ry     beta= 0.70
     Davidson diagonalization with overlap
     ethr =  2.75E-03,  avg # of iterations =  2.0

     total cpu time spent up to now is     1510.1 secs

     total energy              =   -3434.67578056 Ry
     estimated scf accuracy    <       2.58484564 Ry
     electrostatic embedding   =      -0.00268201 Ry
     cavitation energy         =       0.01961637 Ry
     PV energy                 =      -0.08462983 Ry
     correction to one-el term =     220.89606188 Ry

     iteration #  3     ecut=    50.00 Ry     beta= 0.70
     Davidson diagonalization with overlap
     ethr =  7.06E-04,  avg # of iterations =  1.0

     total cpu time spent up to now is     1786.8 secs

     total energy              =   -3434.89574589 Ry
     estimated scf accuracy    <       0.35566005 Ry
     electrostatic embedding   =      -0.00312924 Ry
     cavitation energy         =       0.01969874 Ry
     PV energy                 =      -0.08486506 Ry
     correction to one-el term =     220.89723119 Ry

     iteration #  4     ecut=    50.00 Ry     beta= 0.70
     Davidson diagonalization with overlap
     ethr =  9.72E-05,  avg # of iterations =  1.0

     total cpu time spent up to now is     2054.9 secs

     total energy              =   -3434.90205151 Ry
     estimated scf accuracy    <       0.41068352 Ry
     electrostatic embedding   =      -0.00336762 Ry
     cavitation energy         =       0.01994239 Ry
     PV energy                 =      -0.08443834 Ry
     correction to one-el term =     220.89751832 Ry

     iteration #  5     ecut=    50.00 Ry     beta= 0.70
     Davidson diagonalization with overlap
     ethr =  9.72E-05,  avg # of iterations =  1.0

     total cpu time spent up to now is     2270.0 secs

     total energy              =   -3434.89711052 Ry
     estimated scf accuracy    <       0.15612864 Ry
     electrostatic embedding   =      -0.00357718 Ry
     cavitation energy         =       0.02024645 Ry
     PV energy                 =      -0.08389730 Ry
     correction to one-el term =     220.89773786 Ry

     iteration #  6     ecut=    50.00 Ry     beta= 0.70
     Davidson diagonalization with overlap
     ethr =  4.27E-05,  avg # of iterations = 10.0

     total cpu time spent up to now is     2534.1 secs

     total energy              =   -3434.89095231 Ry
     estimated scf accuracy    <       0.11075395 Ry
     electrostatic embedding   =      -0.00369880 Ry
     cavitation energy         =       0.02060852 Ry
     PV energy                 =      -0.08301269 Ry
     correction to one-el term =     220.89767142 Ry

     iteration #  7     ecut=    50.00 Ry     beta= 0.70
     Davidson diagonalization with overlap
     ethr =  3.03E-05,  avg # of iterations =  2.0

     add environment contribution to local potential
     Polarization accuracy = 3.4E-12, # of iterations =  39

     total cpu time spent up to now is     2854.4 secs

     total energy              =   -3434.88510541 Ry
     estimated scf accuracy    <       0.06304381 Ry
     electrostatic embedding   =      -0.00364133 Ry
     cavitation energy         =       0.02093503 Ry
     PV energy                 =      -0.08189568 Ry
     correction to one-el term =     220.89712311 Ry

     iteration #  8     ecut=    50.00 Ry     beta= 0.70
     Davidson diagonalization with overlap
     ethr =  1.72E-05,  avg # of iterations = 12.0

     total cpu time spent up to now is     3147.8 secs

     total energy              =   -3434.96022418 Ry
     estimated scf accuracy    <       0.18032732 Ry
     electrostatic embedding   =      -0.07223427 Ry
     cavitation energy         =       0.02114416 Ry
     PV energy                 =      -0.08101750 Ry
     correction to one-el term =     184.00157192 Ry

     iteration #  9     ecut=    50.00 Ry     beta= 0.70
     Davidson diagonalization with overlap
     ethr =  1.72E-05,  avg # of iterations =  1.0

     add environment contribution to local potential
     Polarization accuracy = 6.3E-12, # of iterations =  44

     total cpu time spent up to now is     3478.3 secs

     total energy              =   -3434.94638083 Ry
     estimated scf accuracy    <       0.09307185 Ry
     electrostatic embedding   =      -0.07333322 Ry
     cavitation energy         =       0.02122197 Ry
     PV energy                 =      -0.08081107 Ry
     correction to one-el term =     184.00530607 Ry

     iteration # 10     ecut=    50.00 Ry     beta= 0.70
     Davidson diagonalization with overlap
     ethr =  1.72E-05,  avg # of iterations =  3.0

     add environment contribution to local potential
     Polarization accuracy = 3.7E-12, # of iterations =  47

     total cpu time spent up to now is     3773.4 secs

     total energy              =   -3434.95229606 Ry
     estimated scf accuracy    <       0.03892966 Ry
     electrostatic embedding   =      -0.08994112 Ry
     cavitation energy         =       0.02137829 Ry
     PV energy                 =      -0.08034567 Ry
     correction to one-el term =     181.47725887 Ry

     iteration # 11     ecut=    50.00 Ry     beta= 0.70
     Davidson diagonalization with overlap
     ethr =  1.06E-05,  avg # of iterations =  5.0

     negative rho (up, down):  4.633E-04 0.000E+00

     add environment contribution to local potential
     Polarization accuracy = 9.8E-12, # of iterations =  47

     total cpu time spent up to now is     9519.3 secs

     total energy              =   -3434.95637508 Ry
     estimated scf accuracy    <       0.00944184 Ry
     electrostatic embedding   =      -0.10452675 Ry
     cavitation energy         =       0.02136864 Ry
     PV energy                 =      -0.08011114 Ry
     correction to one-el term =     180.97429155 Ry

     iteration # 12     ecut=    50.00 Ry     beta= 0.70
     Davidson diagonalization with overlap
     ethr =  2.58E-06,  avg # of iterations =  5.0

     negative rho (up, down):  8.852E-04 0.000E+00

     add environment contribution to local potential
     Polarization accuracy = 5.2E-12, # of iterations =  47

     total cpu time spent up to now is    10175.4 secs

     total energy              =   -3434.95850783 Ry
     estimated scf accuracy    <       0.00663794 Ry
     electrostatic embedding   =      -0.11447748 Ry
     cavitation energy         =       0.02124653 Ry
     PV energy                 =      -0.08010003 Ry
     correction to one-el term =     181.44943217 Ry

     iteration # 13     ecut=    50.00 Ry     beta= 0.70
     Davidson diagonalization with overlap
     ethr =  1.81E-06,  avg # of iterations =  2.0

     negative rho (up, down):  2.864E-06 0.000E+00

     add environment contribution to local potential
     Polarization accuracy = 8.1E-12, # of iterations =  44

     total cpu time spent up to now is    10790.1 secs

     total energy              =   -3434.95904525 Ry
     estimated scf accuracy    <       0.00490539 Ry
     electrostatic embedding   =      -0.12027368 Ry
     cavitation energy         =       0.02121007 Ry
     PV energy                 =      -0.08009697 Ry
     correction to one-el term =     181.57476446 Ry

     iteration # 14     ecut=    50.00 Ry     beta= 0.70
     Davidson diagonalization with overlap
     ethr =  1.34E-06,  avg # of iterations =  6.0

     negative rho (up, down):  3.343E-08 0.000E+00

     add environment contribution to local potential
     Polarization accuracy = 3.8E-12, # of iterations =  44

     total cpu time spent up to now is    11426.1 secs

     total energy              =   -3434.95984834 Ry
     estimated scf accuracy    <       0.00271200 Ry
     electrostatic embedding   =      -0.12078426 Ry
     cavitation energy         =       0.02100560 Ry
     PV energy                 =      -0.08035661 Ry
     correction to one-el term =     183.23324502 Ry

     iteration # 15     ecut=    50.00 Ry     beta= 0.70
     Davidson diagonalization with overlap
     ethr =  7.41E-07,  avg # of iterations =  6.0

     negative rho (up, down):  3.784E-07 0.000E+00

     add environment contribution to local potential
     Polarization accuracy = 7.9E-12, # of iterations =  43

     total cpu time spent up to now is    12081.8 secs

     total energy              =   -3434.96025276 Ry
     estimated scf accuracy    <       0.00167952 Ry
     electrostatic embedding   =      -0.12014470 Ry
     cavitation energy         =       0.02094014 Ry
     PV energy                 =      -0.08047234 Ry
     correction to one-el term =     184.24880659 Ry

     iteration # 16     ecut=    50.00 Ry     beta= 0.70
     Davidson diagonalization with overlap
     ethr =  4.59E-07,  avg # of iterations =  7.0

     negative rho (up, down):  7.437E-07 0.000E+00

     add environment contribution to local potential
     Polarization accuracy = 5.2E-12, # of iterations =  43

     total cpu time spent up to now is    13279.4 secs

     total energy              =   -3434.96059826 Ry
     estimated scf accuracy    <       0.00063545 Ry
     electrostatic embedding   =      -0.11635739 Ry
     cavitation energy         =       0.02086451 Ry
     PV energy                 =      -0.08061762 Ry
     correction to one-el term =     185.55068200 Ry

     iteration # 17     ecut=    50.00 Ry     beta= 0.70
     Davidson diagonalization with overlap
     ethr =  1.74E-07,  avg # of iterations =  6.0

     negative rho (up, down):  2.360E-03 0.000E+00

     add environment contribution to local potential
     Polarization accuracy = 7.8E-12, # of iterations =  43

     total cpu time spent up to now is    13938.7 secs

     total energy              =   -3434.96083333 Ry
     estimated scf accuracy    <       0.00029995 Ry
     electrostatic embedding   =      -0.11222742 Ry
     cavitation energy         =       0.02085562 Ry
     PV energy                 =      -0.08065452 Ry
     correction to one-el term =     186.04566747 Ry

     iteration # 18     ecut=    50.00 Ry     beta= 0.70
     Davidson diagonalization with overlap
     ethr =  8.20E-08,  avg # of iterations =  5.0

     negative rho (up, down):  9.061E-04 0.000E+00

     add environment contribution to local potential
     Polarization accuracy = 8.1E-12, # of iterations =  44

     total cpu time spent up to now is    14543.4 secs

     total energy              =   -3434.96086469 Ry
     estimated scf accuracy    <       0.00008551 Ry
     electrostatic embedding   =      -0.11143228 Ry
     cavitation energy         =       0.02085269 Ry
     PV energy                 =      -0.08063653 Ry
     correction to one-el term =     186.36804040 Ry

     iteration # 19     ecut=    50.00 Ry     beta= 0.70
     Davidson diagonalization with overlap
     ethr =  2.34E-08,  avg # of iterations =  6.0

     negative rho (up, down):  9.739E-04 0.000E+00

     add environment contribution to local potential
     Polarization accuracy = 3.7E-12, # of iterations =  44

     total cpu time spent up to now is    15156.5 secs

     total energy              =   -3434.96092383 Ry
     estimated scf accuracy    <       0.00006318 Ry
     electrostatic embedding   =      -0.10897766 Ry
     cavitation energy         =       0.02087422 Ry
     PV energy                 =      -0.08058536 Ry
     correction to one-el term =     186.49784001 Ry

     iteration # 20     ecut=    50.00 Ry     beta= 0.70
     Davidson diagonalization with overlap
     ethr =  1.73E-08,  avg # of iterations =  5.0

     negative rho (up, down):  3.459E-04 0.000E+00

     add environment contribution to local potential
     Polarization accuracy = 3.7E-12, # of iterations =  45

     total cpu time spent up to now is    15803.5 secs

     total energy              =   -3434.96094301 Ry
     estimated scf accuracy    <       0.00001115 Ry
     electrostatic embedding   =      -0.10778391 Ry
     cavitation energy         =       0.02087772 Ry
     PV energy                 =      -0.08056207 Ry
     correction to one-el term =     186.62546340 Ry

     iteration # 21     ecut=    50.00 Ry     beta= 0.70
     Davidson diagonalization with overlap
     ethr =  3.05E-09,  avg # of iterations =  6.0

     negative rho (up, down):  2.124E-04 0.000E+00

     add environment contribution to local potential
     Polarization accuracy = 3.8E-12, # of iterations =  44

     total cpu time spent up to now is    16447.6 secs

     total energy              =   -3434.96095117 Ry
     estimated scf accuracy    <       0.00000586 Ry
     electrostatic embedding   =      -0.10720961 Ry
     cavitation energy         =       0.02087899 Ry
     PV energy                 =      -0.08055035 Ry
     correction to one-el term =     186.64436436 Ry

     iteration # 22     ecut=    50.00 Ry     beta= 0.70
     Davidson diagonalization with overlap
     ethr =  1.60E-09,  avg # of iterations =  2.0

     negative rho (up, down):  1.153E-04 0.000E+00

     add environment contribution to local potential
     Polarization accuracy = 3.9E-12, # of iterations =  44

     total cpu time spent up to now is    17215.4 secs

     total energy              =   -3434.96095169 Ry
     estimated scf accuracy    <       0.00000238 Ry
     electrostatic embedding   =      -0.10718472 Ry
     cavitation energy         =       0.02087633 Ry
     PV energy                 =      -0.08055370 Ry
     correction to one-el term =     186.63695638 Ry

     iteration # 23     ecut=    50.00 Ry     beta= 0.70
     Davidson diagonalization with overlap
     ethr =  6.50E-10,  avg # of iterations =  3.0

     negative rho (up, down):  1.077E-04 0.000E+00

     add environment contribution to local potential
     Polarization accuracy = 3.7E-12, # of iterations =  44

     total cpu time spent up to now is    17830.2 secs

     total energy              =   -3434.96095482 Ry
     estimated scf accuracy    <       0.00000096 Ry
     electrostatic embedding   =      -0.10689123 Ry
     cavitation energy         =       0.02087434 Ry
     PV energy                 =      -0.08055359 Ry
     correction to one-el term =     186.65131991 Ry

     iteration # 24     ecut=    50.00 Ry     beta= 0.70
     Davidson diagonalization with overlap
     ethr =  2.63E-10,  avg # of iterations =  3.0

     negative rho (up, down):  1.906E-04 0.000E+00

     add environment contribution to local potential
     Polarization accuracy = 3.5E-12, # of iterations =  44

     total cpu time spent up to now is    18438.2 secs

     total energy              =   -3434.96095746 Ry
     estimated scf accuracy    <       0.00000065 Ry
     electrostatic embedding   =      -0.10662130 Ry
     cavitation energy         =       0.02087316 Ry
     PV energy                 =      -0.08055391 Ry
     correction to one-el term =     186.67281558 Ry

     iteration # 25     ecut=    50.00 Ry     beta= 0.70
     Davidson diagonalization with overlap
     ethr =  1.77E-10,  avg # of iterations =  2.0

     negative rho (up, down):  1.176E-04 0.000E+00

     add environment contribution to local potential
     Polarization accuracy = 3.2E-12, # of iterations =  45

     total cpu time spent up to now is    19208.7 secs

     total energy              =   -3434.96095849 Ry
     estimated scf accuracy    <       0.00000028 Ry
     electrostatic embedding   =      -0.10656760 Ry
     cavitation energy         =       0.02087173 Ry
     PV energy                 =      -0.08055796 Ry
     correction to one-el term =     186.68647167 Ry

     iteration # 26     ecut=    50.00 Ry     beta= 0.70
     Davidson diagonalization with overlap
     ethr =  7.75E-11,  avg # of iterations =  3.0

     negative rho (up, down):  1.385E-04 0.000E+00

     add environment contribution to local potential
     Polarization accuracy = 3.4E-12, # of iterations =  44

     total cpu time spent up to now is    19888.9 secs

     total energy              =   -3434.96095979 Ry
     estimated scf accuracy    <       0.00000015 Ry
     electrostatic embedding   =      -0.10643665 Ry
     cavitation energy         =       0.02087184 Ry
     PV energy                 =      -0.08055696 Ry
     correction to one-el term =     186.68966258 Ry

     iteration # 27     ecut=    50.00 Ry     beta= 0.70
     Davidson diagonalization with overlap
     ethr =  3.98E-11,  avg # of iterations =  2.0

     negative rho (up, down):  1.458E-04 0.000E+00

     add environment contribution to local potential
     Polarization accuracy = 3.5E-12, # of iterations =  44

     total cpu time spent up to now is    20460.0 secs

     total energy              =   -3434.96096037 Ry
     estimated scf accuracy    <       0.00000009 Ry
     electrostatic embedding   =      -0.10641623 Ry
     cavitation energy         =       0.02087184 Ry
     PV energy                 =      -0.08055778 Ry
     correction to one-el term =     186.69448140 Ry

     iteration # 28     ecut=    50.00 Ry     beta= 0.70
     Davidson diagonalization with overlap
     ethr =  2.52E-11,  avg # of iterations =  2.0

     negative rho (up, down):  1.386E-04 0.000E+00

     add environment contribution to local potential
     Polarization accuracy = 3.8E-12, # of iterations =  44

     total cpu time spent up to now is    21133.1 secs

     total energy              =   -3434.96096096 Ry
     estimated scf accuracy    <       0.00000007 Ry
     electrostatic embedding   =      -0.10639369 Ry
     cavitation energy         =       0.02087179 Ry
     PV energy                 =      -0.08055836 Ry
     correction to one-el term =     186.69781355 Ry

     iteration # 29     ecut=    50.00 Ry     beta= 0.70
     Davidson diagonalization with overlap
     ethr =  1.78E-11,  avg # of iterations =  2.0

     negative rho (up, down):  1.368E-04 0.000E+00

     add environment contribution to local potential
     Polarization accuracy = 8.7E-12, # of iterations =  44

     total cpu time spent up to now is    22032.9 secs

     total energy              =   -3434.96096162 Ry
     estimated scf accuracy    <       0.00000006 Ry
     electrostatic embedding   =      -0.10636950 Ry
     cavitation energy         =       0.02087183 Ry
     PV energy                 =      -0.08055834 Ry
     correction to one-el term =     186.69969245 Ry

     iteration # 30     ecut=    50.00 Ry     beta= 0.70
     Davidson diagonalization with overlap
     ethr =  1.69E-11,  avg # of iterations =  2.0

     negative rho (up, down):  1.292E-04 0.000E+00

     add environment contribution to local potential
     Polarization accuracy = 4.3E-12, # of iterations =  44

     total cpu time spent up to now is    22776.3 secs

     total energy              =   -3434.96096220 Ry
     estimated scf accuracy    <       0.00000006 Ry
     electrostatic embedding   =      -0.10638090 Ry
     cavitation energy         =       0.02087202 Ry
     PV energy                 =      -0.08055809 Ry
     correction to one-el term =     186.69896551 Ry

     iteration # 31     ecut=    50.00 Ry     beta= 0.70
     Davidson diagonalization with overlap
     ethr =  1.63E-11,  avg # of iterations =  2.0

     negative rho (up, down):  1.239E-04 0.000E+00

     add environment contribution to local potential
     Polarization accuracy = 3.2E-12, # of iterations =  44

     total cpu time spent up to now is    23351.0 secs

     total energy              =   -3434.96096428 Ry
     estimated scf accuracy    <       0.00000005 Ry
     electrostatic embedding   =      -0.10636854 Ry
     cavitation energy         =       0.02087226 Ry
     PV energy                 =      -0.08055775 Ry
     correction to one-el term =     186.69998409 Ry

     iteration # 32     ecut=    50.00 Ry     beta= 0.70
     Davidson diagonalization with overlap
     ethr =  1.49E-11,  avg # of iterations =  2.0

     negative rho (up, down):  1.234E-04 0.000E+00

     add environment contribution to local potential
     Polarization accuracy = 3.1E-12, # of iterations =  44

     total cpu time spent up to now is    24097.0 secs

     total energy              =   -3434.96096692 Ry
     estimated scf accuracy    <       0.00000005 Ry
     electrostatic embedding   =      -0.10636365 Ry
     cavitation energy         =       0.02087230 Ry
     PV energy                 =      -0.08055745 Ry
     correction to one-el term =     186.69950860 Ry

     iteration # 33     ecut=    50.00 Ry     beta= 0.70
     Davidson diagonalization with overlap
     ethr =  1.27E-11,  avg # of iterations =  2.0

     negative rho (up, down):  1.306E-04 0.000E+00

     add environment contribution to local potential
     Polarization accuracy = 3.0E-12, # of iterations =  44

     total cpu time spent up to now is    24870.2 secs

     total energy              =   -3434.96096999 Ry
     estimated scf accuracy    <       0.00000004 Ry
     electrostatic embedding   =      -0.10637054 Ry
     cavitation energy         =       0.02087243 Ry
     PV energy                 =      -0.08055724 Ry
     correction to one-el term =     186.69894381 Ry

     iteration # 34     ecut=    50.00 Ry     beta= 0.70
     Davidson diagonalization with overlap
     ethr =  1.05E-11,  avg # of iterations =  3.0

     negative rho (up, down):  1.498E-04 0.000E+00

     add environment contribution to local potential
     Polarization accuracy = 2.9E-12, # of iterations =  44

     total cpu time spent up to now is    25643.0 secs

     total energy              =   -3434.96097833 Ry
     estimated scf accuracy    <       0.00000002 Ry
     electrostatic embedding   =      -0.10637786 Ry
     cavitation energy         =       0.02087239 Ry
     PV energy                 =      -0.08055724 Ry
     correction to one-el term =     186.69852683 Ry

     iteration # 35     ecut=    50.00 Ry     beta= 0.70
     Davidson diagonalization with overlap
     ethr =  6.24E-12,  avg # of iterations =  5.0

     negative rho (up, down):  1.506E-04 0.000E+00

     add environment contribution to local potential
     Polarization accuracy = 2.8E-12, # of iterations =  44

     total cpu time spent up to now is    26226.3 secs

     total energy              =   -3434.96099046 Ry
     estimated scf accuracy    <          7.4E-09 Ry
     electrostatic embedding   =      -0.10639149 Ry
     cavitation energy         =       0.02087203 Ry
     PV energy                 =      -0.08055782 Ry
     correction to one-el term =     186.69810730 Ry

     iteration # 36     ecut=    50.00 Ry     beta= 0.70
     Davidson diagonalization with overlap
     ethr =  2.03E-12,  avg # of iterations =  2.0

     negative rho (up, down):  1.495E-04 0.000E+00

     add environment contribution to local potential
     Polarization accuracy = 2.8E-12, # of iterations =  44

     total cpu time spent up to now is    27057.6 secs

     total energy              =   -3434.96099302 Ry
     estimated scf accuracy    <          2.8E-09 Ry
     electrostatic embedding   =      -0.10638241 Ry
     cavitation energy         =       0.02087194 Ry
     PV energy                 =      -0.08055817 Ry
     correction to one-el term =     186.69972920 Ry

     iteration # 37     ecut=    50.00 Ry     beta= 0.70
     Davidson diagonalization with overlap
     ethr =  7.58E-13,  avg # of iterations =  5.0

     negative rho (up, down):  1.482E-04 0.000E+00

     add environment contribution to local potential
     Polarization accuracy = 2.9E-12, # of iterations =  44

     total cpu time spent up to now is    27818.4 secs

     total energy              =   -3434.96099404 Ry
     estimated scf accuracy    <          1.5E-09 Ry
     electrostatic embedding   =      -0.10638457 Ry
     cavitation energy         =       0.02087189 Ry
     PV energy                 =      -0.08055818 Ry
     correction to one-el term =     186.69954357 Ry

     iteration # 38     ecut=    50.00 Ry     beta= 0.70
     Davidson diagonalization with overlap
     ethr =  3.97E-13,  avg # of iterations =  2.0

     negative rho (up, down):  1.389E-04 0.000E+00

     the potential shift due to the Gaussian-smeared nuclei is    -1.3426 ev

     total cpu time spent up to now is    28364.2 secs

     End of self-consistent calculation

          k = 0.2500 0.2752 0.0000 ( 34780 PWs)   bands (ev):

   -77.5584 -77.5440 -77.1515 -77.1377 -77.0133 -76.9993 -76.8517 -76.8478
   -76.8375 -76.7789 -76.7405 -76.6260 -47.9955 -47.9811 -47.6055 -47.5916
   -47.4923 -47.4779 -47.3783 -47.3643 -47.3353 -47.2286 -47.2272 -47.2129
   -47.1255 -47.1114 -47.0568 -47.0429 -47.0040 -46.9900 -46.9446 -46.9338
   -46.9220 -46.8854 -46.8588 -46.8440 -46.8096 -46.7955 -46.7549 -46.7228
   -46.6802 -46.6406 -46.6265 -46.5955 -46.5798 -46.5688 -46.5666 -46.4508
   -26.6430 -26.6225 -23.5229 -23.4110 -23.2562 -23.0673 -23.0331 -22.8929
   -22.7805 -22.5311 -22.4473 -22.3195 -22.3047 -22.2247 -22.1880 -22.1351
   -22.1087 -22.0953 -22.0189 -21.9629 -21.9255 -21.8816 -21.6806 -21.6192
   -21.2577 -21.1851 -21.1748 -21.1193 -13.7744 -13.7543 -11.9457 -11.8442
   -11.7006 -11.6858 -11.5444 -11.1718 -11.1445 -10.9714 -10.8720 -10.7671
   -10.7429 -10.6631 -10.5983 -10.5821 -10.5447 -10.5146 -10.3757 -10.3152
   -10.2979 -10.1925 -10.0680 -10.0270 -10.0026  -9.8048  -9.6641  -9.6541
    -9.5777  -9.5461  -9.3652  -9.3548  -9.2422  -9.2098  -9.1040  -9.0658
    -8.9092  -8.8751  -8.7850  -8.6548  -8.6297  -8.6034  -8.5519  -8.4274
    -8.4147  -8.3461  -8.1987  -8.1313  -7.9942  -7.9760  -7.8869  -7.8142
    -7.7360  -7.6901  -7.6827  -7.6258  -7.4853  -7.4456  -7.3860  -7.3074
    -7.2751  -7.2645  -7.1099  -7.0517  -7.0351  -6.8897  -6.8555  -6.8238
    -6.6251  -6.5510  -6.4705  -6.3858  -6.2999  -6.2642  -6.2363  -6.1793
    -6.0608  -5.9847  -5.9695  -5.8247  -5.6644  -5.6301  -5.6201  -5.5892
    -4.6394  -4.5822  -4.5135  -4.3941  -4.3150  -4.2738  -4.2660  -4.1936
    -4.1769  -4.1320  -4.1168  -4.0670  -4.0044  -3.9854  -3.8789  -3.8431
    -3.8350  -3.7551  -3.7327  -3.6038  -3.5864  -3.4737  -3.4103  -3.3993
    -3.1976  -3.1668  -3.0688  -3.0019  -2.7291  -2.6591  -2.5553  -2.4646
    -2.4053  -2.3812  -2.1965  -2.0392  -1.9887  -1.5979  -1.4568  -1.4175
    -1.3238  -1.0473  -0.8119  -0.5013  -0.4723  -0.1314   0.2550   0.3126
     0.3637   0.3852   0.5845   0.6338   0.7859   1.0617   1.0750   1.3257
     1.3401   1.5570   1.5742   1.6323

     the Fermi energy is    -3.3885 ev

!    total energy              =   -3434.96099449 Ry
     estimated scf accuracy    <          9.1E-10 Ry
     smearing contrib. (-TS)   =       0.04678651 Ry
     internal energy E=F+TS    =   -3435.00778100 Ry

     The total energy is F=E-TS. E is the sum of the following terms:
     one-electron contribution =  -25560.86414891 Ry
     hartree contribution      =   12769.62096846 Ry
     xc contribution           =    -448.49129762 Ry
     ewald contribution        =    9884.71296356 Ry
     one-center paw contrib.   =    -266.51942870 Ry
     electrostatic embedding   =      -0.10638655 Ry
     cavitation energy         =       0.02087187 Ry
     PV energy                 =      -0.08055816 Ry
     correction to one-el term =     186.69923506 Ry

     WARNING: you are using the parabolic pbc correction;
              the potential shift above must be added to 
              band and Fermi energies.

     convergence has been achieved in  38 iterations

     negative rho (up, down):  1.389E-04 0.000E+00

     Forces acting on atoms (cartesian axes, Ry/au):

     atom    1 type  1   force =     0.03801996    0.00000000   -0.01284738
     atom    2 type  1   force =    -0.00232134    0.00000000   -0.02441484
     atom    3 type  1   force =     0.00153642    0.00000000   -0.01804324
     atom    4 type  1   force =     0.00010213    0.00000000    0.12755637
     atom    5 type  2   force =    -0.04735477    0.00000000    0.00926460
     atom    6 type  2   force =     0.04406086    0.00000000    0.01428342
     atom    7 type  1   force =     0.00731827    0.07770825    0.00069761
     atom    8 type  1   force =    -0.00405743    0.05297427   -0.00154002
     atom    9 type  2   force =    -0.00344733    0.00000000   -0.00053080
     atom   10 type  2   force =     0.00088857    0.00000000    0.02366608
     atom   11 type  1   force =     0.00731827   -0.07770825    0.00069761
     atom   12 type  1   force =    -0.00405743   -0.05297427   -0.00154002
     atom   13 type  1   force =    -0.00227737    0.00000000   -0.00299559
     atom   14 type  1   force =     0.00107552    0.00000000   -0.00900540
     atom   15 type  1   force =    -0.00206067    0.00000000   -0.00198408
     atom   16 type  1   force =     0.00268220    0.00000000    0.01753394
     atom   17 type  2   force =     0.02123407    0.00000000    0.00000000
     atom   18 type  2   force =    -0.02037311    0.00000000    0.00000000
     atom   19 type  1   force =    -0.00880629   -0.04100606    0.00000000
     atom   20 type  1   force =     0.00716158   -0.09924290    0.00000000
     atom   21 type  2   force =    -0.01535595    0.00000000    0.00000000
     atom   22 type  2   force =     0.02015631    0.00000000    0.00000000
     atom   23 type  1   force =    -0.00880629    0.04100606    0.00000000
     atom   24 type  1   force =     0.00716158    0.09924290    0.00000000
     atom   25 type  1   force =    -0.00206067    0.00000000    0.00198408
     atom   26 type  1   force =     0.00268220    0.00000000   -0.01753394
     atom   27 type  1   force =    -0.00227737    0.00000000    0.00299559
     atom   28 type  1   force =     0.00107552    0.00000000    0.00900540
     atom   29 type  2   force =    -0.04735477    0.00000000   -0.00926460
     atom   30 type  2   force =     0.04406086    0.00000000   -0.01428342
     atom   31 type  1   force =     0.00731827    0.07770825   -0.00069761
     atom   32 type  1   force =    -0.00405743    0.05297427    0.00154002
     atom   33 type  2   force =    -0.00344733    0.00000000    0.00053080
     atom   34 type  2   force =     0.00088857    0.00000000   -0.02366608
     atom   35 type  1   force =     0.00731827   -0.07770825   -0.00069761
     atom   36 type  1   force =    -0.00405743   -0.05297427    0.00154002
     atom   37 type  1   force =     0.00153642    0.00000000    0.01804324
     atom   38 type  1   force =     0.00010213    0.00000000   -0.12755637
     atom   39 type  1   force =     0.03801996    0.00000000    0.01284738
     atom   40 type  1   force =    -0.00232134    0.00000000    0.02441484
     atom   41 type  3   force =    -0.03826937    0.00000000    0.00705922
     atom   42 type  3   force =    -0.03826937    0.00000000   -0.00705922
     atom   43 type  3   force =    -0.00017121    0.11355994   -0.06397349
     atom   44 type  3   force =    -0.00017121    0.11355994    0.06397349
     atom   45 type  3   force =    -0.00017121   -0.11355994   -0.06397349
     atom   46 type  3   force =    -0.00017121   -0.11355994    0.06397349
     The non-local contrib.  to forces
     atom    1 type  1   force =     1.68894181    0.00000000    0.56654304
     atom    2 type  1   force =     0.04741436    0.00000000    1.11644896
     atom    3 type  1   force =     0.00834361    0.00000000    1.13509542
     atom    4 type  1   force =     0.01044349    0.00000000   -1.57761507
     atom    5 type  2   force =     0.04300038    0.00000000   -0.02499739
     atom    6 type  2   force =    -0.04450187    0.00000000   -0.02508941
     atom    7 type  1   force =    -0.02427867   -0.07836598   -0.07685910
     atom    8 type  1   force =    -0.12110947   -0.04616997    0.00021696
     atom    9 type  2   force =     0.00630536    0.00000000    0.03713045
     atom   10 type  2   force =    -0.00864936    0.00000000   -0.03311367
     atom   11 type  1   force =    -0.02427867    0.07836598   -0.07685910
     atom   12 type  1   force =    -0.12110947    0.04616997    0.00021696
     atom   13 type  1   force =     0.00587320    0.00000000   -0.16026035
     atom   14 type  1   force =     0.02482488    0.00000000    0.07594516
     atom   15 type  1   force =    -0.01297774    0.00000000   -0.03968017
     atom   16 type  1   force =    -0.00535801    0.00000000    0.14033239
     atom   17 type  2   force =    -0.01146084    0.00000000    0.00000000
     atom   18 type  2   force =     0.00524557    0.00000000    0.00000000
     atom   19 type  1   force =     0.02462278    0.10365726    0.00000000
     atom   20 type  1   force =    -0.01176788    0.02044428    0.00000000
     atom   21 type  2   force =     0.00837603    0.00000000    0.00000000
     atom   22 type  2   force =    -0.02842242    0.00000000    0.00000000
     atom   23 type  1   force =     0.02462278   -0.10365726    0.00000000
     atom   24 type  1   force =    -0.01176788   -0.02044428    0.00000000
     atom   25 type  1   force =    -0.01297774    0.00000000    0.03968017
     atom   26 type  1   force =    -0.00535801    0.00000000   -0.14033239
     atom   27 type  1   force =     0.00587320    0.00000000    0.16026035
     atom   28 type  1   force =     0.02482488    0.00000000   -0.07594516
     atom   29 type  2   force =     0.04300038    0.00000000    0.02499739
     atom   30 type  2   force =    -0.04450187    0.00000000    0.02508941
     atom   31 type  1   force =    -0.02427867   -0.07836598    0.07685910
     atom   32 type  1   force =    -0.12110947   -0.04616997   -0.00021696
     atom   33 type  2   force =     0.00630536    0.00000000   -0.03713045
     atom   34 type  2   force =    -0.00864936    0.00000000    0.03311367
     atom   35 type  1   force =    -0.02427867    0.07836598    0.07685910
     atom   36 type  1   force =    -0.12110947    0.04616997   -0.00021696
     atom   37 type  1   force =     0.00834361    0.00000000   -1.13509542
     atom   38 type  1   force =     0.01044349    0.00000000    1.57761507
     atom   39 type  1   force =     1.68894181    0.00000000   -0.56654304
     atom   40 type  1   force =     0.04741436    0.00000000   -1.11644896
     atom   41 type  3   force =    -0.08989867    0.00000000    0.02307270
     atom   42 type  3   force =    -0.08989867    0.00000000   -0.02307270
     atom   43 type  3   force =    -0.00012829   -0.10261689    0.08829397
     atom   44 type  3   force =    -0.00012829   -0.10261689   -0.08829397
     atom   45 type  3   force =    -0.00012829    0.10261689    0.08829397
     atom   46 type  3   force =    -0.00012829    0.10261689   -0.08829397
     The ionic contribution  to forces
     atom    1 type  1   force =    -3.48033384    0.00000013  -97.04600398
     atom    2 type  1   force =     0.07323258    0.00000015 -100.24449922
     atom    3 type  1   force =    -0.25866565   -0.00000030  -95.01232839
     atom    4 type  1   force =     0.19274571   -0.00000020  -88.61057505
     atom    5 type  2   force =     5.55948145   -0.00000235 -171.40610506
     atom    6 type  2   force =    -5.38504332   -0.00000212 -173.05157563
     atom    7 type  1   force =     1.36277040    0.96030503  -62.43584661
     atom    8 type  1   force =    -0.40410529    0.46362934  -65.17627507
     atom    9 type  2   force =    -1.75561044    0.00000295 -169.72758466
     atom   10 type  2   force =     1.11305893    0.00000265 -172.99051156
     atom   11 type  1   force =     1.36277042   -0.96030458  -62.43584417
     atom   12 type  1   force =    -0.40410531   -0.46362890  -65.17627298
     atom   13 type  1   force =    -0.18446405   -0.00000168  -37.20038925
     atom   14 type  1   force =    -0.07198338   -0.00000167  -39.97048810
     atom   15 type  1   force =    -0.18237048    0.00000922  -25.01219697
     atom   16 type  1   force =     0.33648988    0.00000881  -27.12483922
     atom   17 type  2   force =     0.18328251    0.00001176   -0.00046629
     atom   18 type  2   force =    -0.19662541    0.00001452   -0.00044293
     atom   19 type  1   force =    -0.18069151   -0.54525699   -0.00008391
     atom   20 type  1   force =     0.04750936   -1.10602536   -0.00008013
     atom   21 type  2   force =     0.62298940    0.00011818   -0.00026199
     atom   22 type  2   force =    -1.28731538    0.00012592   -0.00024603
     atom   23 type  1   force =    -0.18069389    0.54511218   -0.00008391
     atom   24 type  1   force =     0.04751249    1.10586683   -0.00008013
     atom   25 type  1   force =    -0.18236646    0.00000922   25.01197836
     atom   26 type  1   force =     0.33650406    0.00000881   27.12468282
     atom   27 type  1   force =    -0.18446018   -0.00000168   37.20070939
     atom   28 type  1   force =    -0.07198330   -0.00000167   39.97076872
     atom   29 type  2   force =     5.55937051   -0.00000235  171.40638253
     atom   30 type  2   force =    -5.38493873   -0.00000212  173.05184887
     atom   31 type  1   force =     1.36276522    0.96027319   62.43591323
     atom   32 type  1   force =    -0.40409903    0.46360264   65.17634516
     atom   33 type  2   force =    -1.75562642    0.00000295  169.72771377
     atom   34 type  2   force =     1.11306519    0.00000265  172.99067263
     atom   35 type  1   force =     1.36276524   -0.96027274   62.43591079
     atom   36 type  1   force =    -0.40409905   -0.46360219   65.17634308
     atom   37 type  1   force =    -0.25866458   -0.00000030   95.01246425
     atom   38 type  1   force =     0.19275047   -0.00000020   88.61047957
     atom   39 type  1   force =    -3.48038123    0.00000013   97.04612473
     atom   40 type  1   force =     0.07323636    0.00000015  100.24457128
     atom   41 type  3   force =     2.45800341    0.00000002  -16.24046923
     atom   42 type  3   force =     2.45805280    0.00000002   16.24046156
     atom   43 type  3   force =     0.07006775    2.66508335  -17.52140859
     atom   44 type  3   force =     0.07006751    2.66535679   17.52149846
     atom   45 type  3   force =     0.07006775   -2.66508338  -17.52140857
     atom   46 type  3   force =     0.07006751   -2.66535682   17.52149844
     The local contribution  to forces
     atom    1 type  1   force =     1.76467007   -0.00000000   96.37840530
     atom    2 type  1   force =    -0.08961074   -0.00000000   99.10021370
     atom    3 type  1   force =     0.23900184   -0.00000000   93.79233392
     atom    4 type  1   force =    -0.19568486    0.00000000   90.50927555
     atom    5 type  2   force =    -5.73984367   -0.00000000  171.47435389
     atom    6 type  2   force =     5.56677281   -0.00000000  173.10615163
     atom    7 type  1   force =    -1.35736044   -0.79479694   62.51555227
     atom    8 type  1   force =     0.54870766   -0.34971710   65.15893759
     atom    9 type  2   force =     1.71733723    0.00000000  169.60356771
     atom   10 type  2   force =    -1.07421926   -0.00000000  173.06905147
     atom   11 type  1   force =    -1.35736044    0.79479694   62.51555227
     atom   12 type  1   force =     0.54870766    0.34971710   65.15893759
     atom   13 type  1   force =     0.17457075   -0.00000000   37.34770881
     atom   14 type  1   force =     0.05056206    0.00000000   39.89907624
     atom   15 type  1   force =     0.19171017    0.00000000   25.04396824
     atom   16 type  1   force =    -0.32714821   -0.00000000   27.00584711
     atom   17 type  2   force =    -0.15212758    0.00000000   -0.00578769
     atom   18 type  2   force =     0.17283276    0.00000000   -0.00588144
     atom   19 type  1   force =     0.14451211    0.40116871   -0.00245679
     atom   20 type  1   force =    -0.02568638    0.98556556   -0.00248347
     atom   21 type  2   force =    -0.65386930   -0.00000000   -0.00605164
     atom   22 type  2   force =     1.34316877   -0.00000000   -0.00610618
     atom   23 type  1   force =     0.14451433   -0.40151300   -0.00245679
     atom   24 type  1   force =    -0.02568946   -0.98590027   -0.00248347
     atom   25 type  1   force =     0.19172120    0.00000000  -25.04573543
     atom   26 type  1   force =    -0.32712618    0.00000000  -27.00759772
     atom   27 type  1   force =     0.17457436   -0.00000000  -37.34945039
     atom   28 type  1   force =     0.05057132    0.00000000  -39.90087895
     atom   29 type  2   force =    -5.73988053    0.00000000 -171.48048022
     atom   30 type  2   force =     5.56680940    0.00000000 -173.11225479
     atom   31 type  1   force =    -1.35734720   -0.79477876  -62.51801240
     atom   32 type  1   force =     0.54868930   -0.34970439  -65.16141562
     atom   33 type  2   force =     1.71735959   -0.00000000 -169.60941812
     atom   34 type  2   force =    -1.07426513   -0.00000000 -173.07475603
     atom   35 type  1   force =    -1.35734720    0.79477876  -62.51801240
     atom   36 type  1   force =     0.54868930    0.34970439  -65.16141562
     atom   37 type  1   force =     0.23900200   -0.00000000  -93.79619713
     atom   38 type  1   force =    -0.19569233    0.00000000  -90.51295487
     atom   39 type  1   force =     1.76469611    0.00000000  -96.37995564
     atom   40 type  1   force =    -0.08967669    0.00000000  -99.10165853
     atom   41 type  3   force =    -2.42564811   -0.00000000   16.22057771
     atom   42 type  3   force =    -2.42564811    0.00000000  -16.22057771
     atom   43 type  3   force =    -0.06949018   -2.43811359   17.42669262
     atom   44 type  3   force =    -0.06949018   -2.43811359  -17.42669262
     atom   45 type  3   force =    -0.06949018    2.43811359   17.42669262
     atom   46 type  3   force =    -0.06949018    2.43811359  -17.42669262
     The core correction contribution to forces
     atom    1 type  1   force =    -0.01734152    0.00000000   -0.00569721
     atom    2 type  1   force =    -0.00019560    0.00000000   -0.00957356
     atom    3 type  1   force =    -0.00010610    0.00000000   -0.01172270
     atom    4 type  1   force =    -0.00011035    0.00000000    0.01254793
     atom    5 type  2   force =     0.00000000    0.00000000    0.00000000
     atom    6 type  2   force =     0.00000000    0.00000000    0.00000000
     atom    7 type  1   force =    -0.00003496   -0.00072925    0.00071605
     atom    8 type  1   force =     0.00144214   -0.00061056    0.00003873
     atom    9 type  2   force =     0.00000000    0.00000000    0.00000000
     atom   10 type  2   force =     0.00000000    0.00000000    0.00000000
     atom   11 type  1   force =    -0.00003496    0.00072925    0.00071605
     atom   12 type  1   force =     0.00144214    0.00061056    0.00003873
     atom   13 type  1   force =    -0.00007711    0.00000000    0.00219401
     atom   14 type  1   force =    -0.00022670   -0.00000000   -0.00068003
     atom   15 type  1   force =     0.00020580    0.00000000    0.00002362
     atom   16 type  1   force =     0.00001440   -0.00000000   -0.00234647
     atom   17 type  2   force =     0.00000000    0.00000000    0.00000000
     atom   18 type  2   force =     0.00000000    0.00000000    0.00000000
     atom   19 type  1   force =    -0.00010410   -0.00007166   -0.00000210
     atom   20 type  1   force =    -0.00001042    0.00138179   -0.00000224
     atom   21 type  2   force =     0.00000000    0.00000000    0.00000000
     atom   22 type  2   force =     0.00000000    0.00000000    0.00000000
     atom   23 type  1   force =    -0.00010410    0.00007117   -0.00000210
     atom   24 type  1   force =    -0.00001042   -0.00138225   -0.00000224
     atom   25 type  1   force =     0.00020574   -0.00000000   -0.00002576
     atom   26 type  1   force =     0.00001451    0.00000000    0.00234435
     atom   27 type  1   force =    -0.00007714   -0.00000000   -0.00219630
     atom   28 type  1   force =    -0.00022670    0.00000000    0.00067777
     atom   29 type  2   force =     0.00000000    0.00000000    0.00000000
     atom   30 type  2   force =     0.00000000    0.00000000    0.00000000
     atom   31 type  1   force =    -0.00003503   -0.00072929   -0.00071803
     atom   32 type  1   force =     0.00144218   -0.00061047   -0.00004070
     atom   33 type  2   force =     0.00000000    0.00000000    0.00000000
     atom   34 type  2   force =     0.00000000    0.00000000    0.00000000
     atom   35 type  1   force =    -0.00003503    0.00072929   -0.00071803
     atom   36 type  1   force =     0.00144218    0.00061047   -0.00004070
     atom   37 type  1   force =    -0.00010596    0.00000000    0.01171876
     atom   38 type  1   force =    -0.00011033    0.00000000   -0.01255165
     atom   39 type  1   force =    -0.01734231   -0.00000000    0.00569513
     atom   40 type  1   force =    -0.00019588    0.00000000    0.00957150
     atom   41 type  3   force =     0.00000000    0.00000000    0.00000000
     atom   42 type  3   force =     0.00000000    0.00000000    0.00000000
     atom   43 type  3   force =     0.00000000    0.00000000    0.00000000
     atom   44 type  3   force =     0.00000000    0.00000000    0.00000000
     atom   45 type  3   force =     0.00000000    0.00000000    0.00000000
     atom   46 type  3   force =     0.00000000    0.00000000    0.00000000
     The Hubbard contrib.    to forces
     atom    1 type  1   force =     0.00000000    0.00000000    0.00000000
     atom    2 type  1   force =     0.00000000    0.00000000    0.00000000
     atom    3 type  1   force =     0.00000000    0.00000000    0.00000000
     atom    4 type  1   force =     0.00000000    0.00000000    0.00000000
     atom    5 type  2   force =     0.00000000    0.00000000    0.00000000
     atom    6 type  2   force =     0.00000000    0.00000000    0.00000000
     atom    7 type  1   force =     0.00000000    0.00000000    0.00000000
     atom    8 type  1   force =     0.00000000    0.00000000    0.00000000
     atom    9 type  2   force =     0.00000000    0.00000000    0.00000000
     atom   10 type  2   force =     0.00000000    0.00000000    0.00000000
     atom   11 type  1   force =     0.00000000    0.00000000    0.00000000
     atom   12 type  1   force =     0.00000000    0.00000000    0.00000000
     atom   13 type  1   force =     0.00000000    0.00000000    0.00000000
     atom   14 type  1   force =     0.00000000    0.00000000    0.00000000
     atom   15 type  1   force =     0.00000000    0.00000000    0.00000000
     atom   16 type  1   force =     0.00000000    0.00000000    0.00000000
     atom   17 type  2   force =     0.00000000    0.00000000    0.00000000
     atom   18 type  2   force =     0.00000000    0.00000000    0.00000000
     atom   19 type  1   force =     0.00000000    0.00000000    0.00000000
     atom   20 type  1   force =     0.00000000    0.00000000    0.00000000
     atom   21 type  2   force =     0.00000000    0.00000000    0.00000000
     atom   22 type  2   force =     0.00000000    0.00000000    0.00000000
     atom   23 type  1   force =     0.00000000    0.00000000    0.00000000
     atom   24 type  1   force =     0.00000000    0.00000000    0.00000000
     atom   25 type  1   force =     0.00000000    0.00000000    0.00000000
     atom   26 type  1   force =     0.00000000    0.00000000    0.00000000
     atom   27 type  1   force =     0.00000000    0.00000000    0.00000000
     atom   28 type  1   force =     0.00000000    0.00000000    0.00000000
     atom   29 type  2   force =     0.00000000    0.00000000    0.00000000
     atom   30 type  2   force =     0.00000000    0.00000000    0.00000000
     atom   31 type  1   force =     0.00000000    0.00000000    0.00000000
     atom   32 type  1   force =     0.00000000    0.00000000    0.00000000
     atom   33 type  2   force =     0.00000000    0.00000000    0.00000000
     atom   34 type  2   force =     0.00000000    0.00000000    0.00000000
     atom   35 type  1   force =     0.00000000    0.00000000    0.00000000
     atom   36 type  1   force =     0.00000000    0.00000000    0.00000000
     atom   37 type  1   force =     0.00000000    0.00000000    0.00000000
     atom   38 type  1   force =     0.00000000    0.00000000    0.00000000
     atom   39 type  1   force =     0.00000000    0.00000000    0.00000000
     atom   40 type  1   force =     0.00000000    0.00000000    0.00000000
     atom   41 type  3   force =     0.00000000    0.00000000    0.00000000
     atom   42 type  3   force =     0.00000000    0.00000000    0.00000000
     atom   43 type  3   force =     0.00000000    0.00000000    0.00000000
     atom   44 type  3   force =     0.00000000    0.00000000    0.00000000
     atom   45 type  3   force =     0.00000000    0.00000000    0.00000000
     atom   46 type  3   force =     0.00000000    0.00000000    0.00000000
     The SCF correction term to forces
     atom    1 type  1   force =    -0.00000274   -0.00000002    0.00001722
     atom    2 type  1   force =     0.00000761   -0.00000002    0.00000786
     atom    3 type  1   force =    -0.00000996    0.00000003    0.00001225
     atom    4 type  1   force =     0.00001875    0.00000003    0.00000789
     atom    5 type  2   force =    -0.00000632    0.00000015    0.00005071
     atom    6 type  2   force =     0.00000062    0.00000015    0.00002725
     atom    7 type  1   force =    -0.00000921    0.00000592    0.00001394
     atom    8 type  1   force =     0.00000756    0.00000547    0.00000903
     atom    9 type  2   force =    -0.00001320   -0.00000014    0.00003012
     atom   10 type  2   force =     0.00001765   -0.00000014    0.00002610
     atom   11 type  1   force =    -0.00000921   -0.00000595    0.00001391
     atom   12 type  1   force =     0.00000756   -0.00000551    0.00000900
     atom   13 type  1   force =    -0.00000308    0.00000007    0.00002226
     atom   14 type  1   force =     0.00000358    0.00000007    0.00001899
     atom   15 type  1   force =    -0.00001206   -0.00000008    0.00000800
     atom   16 type  1   force =     0.00001135   -0.00000008    0.00001734
     atom   17 type  2   force =    -0.00001243    0.00000025    0.00001652
     atom   18 type  2   force =     0.00001288    0.00000025    0.00001633
     atom   19 type  1   force =    -0.00000404   -0.00000820    0.00000599
     atom   20 type  1   force =     0.00000425    0.00000520    0.00000607
     atom   21 type  2   force =    -0.00000770   -0.00000025    0.00001614
     atom   22 type  2   force =     0.00000991   -0.00000026    0.00001626
     atom   23 type  1   force =    -0.00000404    0.00000827    0.00000599
     atom   24 type  1   force =     0.00000425   -0.00000514    0.00000607
     atom   25 type  1   force =    -0.00001211   -0.00000008    0.00000156
     atom   26 type  1   force =     0.00001141   -0.00000008   -0.00000845
     atom   27 type  1   force =    -0.00000325    0.00000007   -0.00001648
     atom   28 type  1   force =     0.00000377    0.00000007   -0.00001328
     atom   29 type  2   force =    -0.00000622    0.00000015   -0.00005338
     atom   30 type  2   force =     0.00000046    0.00000015   -0.00003027
     atom   31 type  1   force =    -0.00000935    0.00000568   -0.00001467
     atom   32 type  1   force =     0.00000768    0.00000514   -0.00001007
     atom   33 type  2   force =    -0.00001349   -0.00000014   -0.00003295
     atom   34 type  2   force =     0.00001799   -0.00000014   -0.00003013
     atom   35 type  1   force =    -0.00000935   -0.00000571   -0.00001465
     atom   36 type  1   force =     0.00000768   -0.00000518   -0.00001005
     atom   37 type  1   force =    -0.00001013    0.00000003   -0.00001623
     atom   38 type  1   force =     0.00001888    0.00000003   -0.00001190
     atom   39 type  1   force =    -0.00000286   -0.00000002   -0.00002094
     atom   40 type  1   force =     0.00000768   -0.00000002   -0.00001149
     atom   41 type  3   force =    -0.00000169   -0.00000000    0.00000217
     atom   42 type  3   force =    -0.00000168   -0.00000000   -0.00000273
     atom   43 type  3   force =     0.00000182    0.00000049    0.00000123
     atom   44 type  3   force =     0.00000184    0.00000049   -0.00000179
     atom   45 type  3   force =     0.00000183   -0.00000049    0.00000123
     atom   46 type  3   force =     0.00000184   -0.00000049   -0.00000178

     Total force =     0.424304     Total SCF correction =     0.000144

     BFGS Geometry Optimization
     Energy error            =      0.0E+00 Ry
     Gradient error          =      1.3E-01 Ry/Bohr

     number of scf cycles    =   1
     number of bfgs steps    =   0

     energy             new  =   -3434.9609944917 Ry

     new trust radius        =       0.1303399287 bohr
     new conv_thr            =       0.0000000010 Ry


ATOMIC_POSITIONS (crystal)
O             0.0208953860        0.5000000000        0.2701123404
O             0.4708671904        0.5000000000        0.2733314333
O            -0.0014453470        0.0000000000        0.3076400691
O             0.4965817508        0.0000000000        0.2917898189
Ru            0.2348981995        0.0000000000        0.3583961475
Ru            0.7584327656        0.0000000000        0.3574761130
O             0.2472863041        0.3100173281        0.3592246009
O             0.7513870484        0.3127245915        0.3558697200
Ru            0.0022903534        0.5000000000        0.3577775438
Ru            0.5039122270        0.5000000000        0.3533359929
O             0.2472863041        0.6899826719        0.3592246009
O             0.7513870484        0.6872754085        0.3558697200
O            -0.0046608809        0.0000000000        0.4124597421
O             0.5010815502        0.0000000000        0.4113664603
O            -0.0028264816        0.5000000000        0.4459072247
O             0.4935018677        0.5000000000        0.4417744740
Ru           -0.0047118560        0.0000000000        0.5000010000
Ru            0.4979442092        0.0000000000        0.5000010000
O             0.2492264062        0.1868397338        0.5000010000
O             0.7443413272        0.1890012346        0.5000010000
Ru            0.2510549054        0.5000000000        0.5000010000
Ru            0.7452011880        0.5000000000        0.5000010000
O             0.2492264062        0.8131612662        0.5000010000
O             0.7443413272        0.8109997654        0.5000010000
O            -0.0028264816        0.5000000000        0.5540937753
O             0.4935018677        0.5000000000        0.5582265260
O            -0.0046608809        0.0000000000        0.5875412579
O             0.5010815502        0.0000000000        0.5886345397
Ru            0.2348981995        0.0000000000        0.6416048525
Ru            0.7584327656        0.0000000000        0.6425248870
O             0.2472863041        0.3100173281        0.6407763991
O             0.7513870484        0.3127245915        0.6441312800
Ru            0.0022903534        0.5000000000        0.6422234562
Ru            0.5039122270        0.5000000000        0.6466650071
O             0.2472863041        0.6899826719        0.6407763991
O             0.7513870484        0.6872754085        0.6441312800
O            -0.0014453470        0.0000000000        0.6923619309
O             0.4965817508        0.0000000000        0.7082121811
O             0.0208953860        0.5000000000        0.7298886596
O             0.4708671904        0.5000000000        0.7266695667
H             0.1653263757        0.5000000000        0.2600261990
H             0.1653263757        0.5000000000        0.7399738010
H             0.4965606909        0.1290370927        0.2601345271
H             0.4965606909        0.1290370927        0.7398654729
H             0.4965606909        0.8709629073        0.2601345271
H             0.4965606909        0.8709629073        0.7398654729



     Writing config-only to output data dir /storage/home/mgm6007/ixd4/Maria/StrainJin_Files/RuO2-110-0-035/RuO2-110-0-035.save/
     NEW-OLD atomic charge density approx. for the potential

     Check: negative core charge=   -0.000001

     negative rho (up, down):  1.233E-04 0.000E+00

     add environment contribution to local potential
     Polarization accuracy = 1.2E-12, # of iterations =  45

     total cpu time spent up to now is    28963.1 secs

     per-process dynamical memory:   203.5 Mb

     Self-consistent Calculation

     iteration #  1     ecut=    50.00 Ry     beta= 0.70
     Davidson diagonalization with overlap
     ethr =  1.00E-06,  avg # of iterations = 18.0

     negative rho (up, down):  5.740E-04 0.000E+00

     add environment contribution to local potential
     Polarization accuracy = 2.4E-12, # of iterations =  44

     total cpu time spent up to now is    29718.5 secs

     total energy              =   -3435.00185856 Ry
     estimated scf accuracy    <       0.09739619 Ry
     electrostatic embedding   =      -0.09961989 Ry
     cavitation energy         =       0.02085695 Ry
     PV energy                 =      -0.08081595 Ry
     correction to one-el term =     187.60461527 Ry

     iteration #  2     ecut=    50.00 Ry     beta= 0.70
     Davidson diagonalization with overlap
     ethr =  2.66E-05,  avg # of iterations =  2.0

     negative rho (up, down):  4.248E-04 0.000E+00

     total cpu time spent up to now is    30424.7 secs

     total energy              =   -3435.00668807 Ry
     estimated scf accuracy    <       0.15977224 Ry
     electrostatic embedding   =      -0.09972966 Ry
     cavitation energy         =       0.02089910 Ry
     PV energy                 =      -0.08068332 Ry
     correction to one-el term =     188.09033779 Ry

     iteration #  3     ecut=    50.00 Ry     beta= 0.70
     Davidson diagonalization with overlap
     ethr =  2.66E-05,  avg # of iterations =  1.0

     negative rho (up, down):  5.816E-04 0.000E+00

     add environment contribution to local potential
     Polarization accuracy = 1.6E-12, # of iterations =  44

     total cpu time spent up to now is    31277.0 secs

     total energy              =   -3435.01373064 Ry
     estimated scf accuracy    <       0.01120162 Ry
     electrostatic embedding   =      -0.09988137 Ry
     cavitation energy         =       0.02088277 Ry
     PV energy                 =      -0.08072240 Ry
     correction to one-el term =     188.09045886 Ry

     iteration #  4     ecut=    50.00 Ry     beta= 0.70
     Davidson diagonalization with overlap
     ethr =  3.06E-06,  avg # of iterations =  2.0

     negative rho (up, down):  5.515E-04 0.000E+00

     add environment contribution to local potential
     Polarization accuracy = 6.8E-12, # of iterations =  43

     total cpu time spent up to now is    31664.8 secs

     total energy              =   -3435.01431184 Ry
     estimated scf accuracy    <       0.00267259 Ry
     electrostatic embedding   =      -0.10078563 Ry
     cavitation energy         =       0.02087688 Ry
     PV energy                 =      -0.08072822 Ry
     correction to one-el term =     188.11354617 Ry

     iteration #  5     ecut=    50.00 Ry     beta= 0.70
     Davidson diagonalization with overlap
     ethr =  7.30E-07,  avg # of iterations =  2.0

     negative rho (up, down):  4.718E-04 0.000E+00

     add environment contribution to local potential
     Polarization accuracy = 5.1E-12, # of iterations =  43

     total cpu time spent up to now is    32125.1 secs

     total energy              =   -3435.01460644 Ry
     estimated scf accuracy    <       0.00093829 Ry
     electrostatic embedding   =      -0.10177011 Ry
     cavitation energy         =       0.02086727 Ry
     PV energy                 =      -0.08074141 Ry
     correction to one-el term =     188.08294577 Ry

     iteration #  6     ecut=    50.00 Ry     beta= 0.70
     Davidson diagonalization with overlap
     ethr =  2.56E-07,  avg # of iterations =  2.0

     negative rho (up, down):  3.309E-04 0.000E+00

     add environment contribution to local potential
     Polarization accuracy = 4.0E-12, # of iterations =  43

     total cpu time spent up to now is    32509.7 secs

     total energy              =   -3435.01473373 Ry
     estimated scf accuracy    <       0.00012663 Ry
     electrostatic embedding   =      -0.10269669 Ry
     cavitation energy         =       0.02086091 Ry
     PV energy                 =      -0.08074817 Ry
     correction to one-el term =     188.02849927 Ry

     iteration #  7     ecut=    50.00 Ry     beta= 0.70
     Davidson diagonalization with overlap
     ethr =  3.46E-08,  avg # of iterations =  2.0

     negative rho (up, down):  2.201E-04 0.000E+00

     add environment contribution to local potential
     Polarization accuracy = 3.6E-12, # of iterations =  43

     total cpu time spent up to now is    32940.8 secs

     total energy              =   -3435.01478959 Ry
     estimated scf accuracy    <       0.00012494 Ry
     electrostatic embedding   =      -0.10369385 Ry
     cavitation energy         =       0.02085608 Ry
     PV energy                 =      -0.08075412 Ry
     correction to one-el term =     187.93221040 Ry

     iteration #  8     ecut=    50.00 Ry     beta= 0.70
     Davidson diagonalization with overlap
     ethr =  3.41E-08,  avg # of iterations =  2.0

     negative rho (up, down):  9.031E-05 0.000E+00

     add environment contribution to local potential
     Polarization accuracy = 3.4E-12, # of iterations =  43

     total cpu time spent up to now is    33396.8 secs

     total energy              =   -3435.01482067 Ry
     estimated scf accuracy    <       0.00010450 Ry
     electrostatic embedding   =      -0.10457578 Ry
     cavitation energy         =       0.02085320 Ry
     PV energy                 =      -0.08075702 Ry
     correction to one-el term =     187.83662112 Ry

     iteration #  9     ecut=    50.00 Ry     beta= 0.70
     Davidson diagonalization with overlap
     ethr =  2.86E-08,  avg # of iterations =  2.0

     negative rho (up, down):  3.233E-05 0.000E+00

     add environment contribution to local potential
     Polarization accuracy = 9.8E-12, # of iterations =  42

     total cpu time spent up to now is    33771.6 secs

     total energy              =   -3435.01485127 Ry
     estimated scf accuracy    <       0.00006834 Ry
     electrostatic embedding   =      -0.10603253 Ry
     cavitation energy         =       0.02085164 Ry
     PV energy                 =      -0.08075818 Ry
     correction to one-el term =     187.67171837 Ry

     iteration # 10     ecut=    50.00 Ry     beta= 0.70
     Davidson diagonalization with overlap
     ethr =  1.87E-08,  avg # of iterations =  3.0

     negative rho (up, down):  1.708E-05 0.000E+00

     add environment contribution to local potential
     Polarization accuracy = 3.9E-12, # of iterations =  43

     total cpu time spent up to now is    34149.9 secs

     total energy              =   -3435.01487433 Ry
     estimated scf accuracy    <       0.00002712 Ry
     electrostatic embedding   =      -0.10747296 Ry
     cavitation energy         =       0.02085325 Ry
     PV energy                 =      -0.08075450 Ry
     correction to one-el term =     187.51026248 Ry

     iteration # 11     ecut=    50.00 Ry     beta= 0.70
     Davidson diagonalization with overlap
     ethr =  7.41E-09,  avg # of iterations =  3.0

     negative rho (up, down):  1.100E-05 0.000E+00

     add environment contribution to local potential
     Polarization accuracy = 4.6E-12, # of iterations =  43

     total cpu time spent up to now is    34543.4 secs

     total energy              =   -3435.01488341 Ry
     estimated scf accuracy    <       0.00001372 Ry
     electrostatic embedding   =      -0.10843522 Ry
     cavitation energy         =       0.02085506 Ry
     PV energy                 =      -0.08075040 Ry
     correction to one-el term =     187.40455979 Ry

     iteration # 12     ecut=    50.00 Ry     beta= 0.70
     Davidson diagonalization with overlap
     ethr =  3.75E-09,  avg # of iterations =  4.0

     negative rho (up, down):  1.344E-05 0.000E+00

     add environment contribution to local potential
     Polarization accuracy = 5.1E-12, # of iterations =  43

     total cpu time spent up to now is    34953.6 secs

     total energy              =   -3435.01489146 Ry
     estimated scf accuracy    <       0.00000573 Ry
     electrostatic embedding   =      -0.10955406 Ry
     cavitation energy         =       0.02085984 Ry
     PV energy                 =      -0.08074012 Ry
     correction to one-el term =     187.28742095 Ry

     iteration # 13     ecut=    50.00 Ry     beta= 0.70
     Davidson diagonalization with overlap
     ethr =  1.57E-09,  avg # of iterations =  2.0

     negative rho (up, down):  1.760E-05 0.000E+00

     add environment contribution to local potential
     Polarization accuracy = 5.4E-12, # of iterations =  43

     total cpu time spent up to now is    35342.7 secs

     total energy              =   -3435.01489326 Ry
     estimated scf accuracy    <       0.00000290 Ry
     electrostatic embedding   =      -0.10991103 Ry
     cavitation energy         =       0.02086155 Ry
     PV energy                 =      -0.08073459 Ry
     correction to one-el term =     187.25517041 Ry

     iteration # 14     ecut=    50.00 Ry     beta= 0.70
     Davidson diagonalization with overlap
     ethr =  7.91E-10,  avg # of iterations =  2.0

     negative rho (up, down):  3.279E-05 0.000E+00

     add environment contribution to local potential
     Polarization accuracy = 5.6E-12, # of iterations =  43

     total cpu time spent up to now is    35733.4 secs

     total energy              =   -3435.01489446 Ry
     estimated scf accuracy    <       0.00000147 Ry
     electrostatic embedding   =      -0.11005132 Ry
     cavitation energy         =       0.02086210 Ry
     PV energy                 =      -0.08073170 Ry
     correction to one-el term =     187.24602934 Ry

     iteration # 15     ecut=    50.00 Ry     beta= 0.70
     Davidson diagonalization with overlap
     ethr =  4.02E-10,  avg # of iterations =  2.0

     negative rho (up, down):  6.719E-05 0.000E+00

     add environment contribution to local potential
     Polarization accuracy = 5.5E-12, # of iterations =  43

     total cpu time spent up to now is    36126.3 secs

     total energy              =   -3435.01489546 Ry
     estimated scf accuracy    <       0.00000106 Ry
     electrostatic embedding   =      -0.11004416 Ry
     cavitation energy         =       0.02086130 Ry
     PV energy                 =      -0.08072998 Ry
     correction to one-el term =     187.25640332 Ry

     iteration # 16     ecut=    50.00 Ry     beta= 0.70
     Davidson diagonalization with overlap
     ethr =  2.89E-10,  avg # of iterations =  3.0

     negative rho (up, down):  1.043E-04 0.000E+00

     add environment contribution to local potential
     Polarization accuracy = 5.4E-12, # of iterations =  43

     total cpu time spent up to now is    36536.5 secs

     total energy              =   -3435.01489552 Ry
     estimated scf accuracy    <       0.00000059 Ry
     electrostatic embedding   =      -0.10970938 Ry
     cavitation energy         =       0.02085955 Ry
     PV energy                 =      -0.08073071 Ry
     correction to one-el term =     187.30021395 Ry

[...]
     atom    5 type  2   force =    -7.08441594    0.00000000  171.85375103
     atom    6 type  2   force =     6.91387998    0.00000000  172.95768934
     atom    7 type  1   force =    -1.37704963    0.64991682   62.52825765
     atom    8 type  1   force =     0.94279971    0.64555083   65.13594819
     atom    9 type  2   force =     1.51799942   -0.00000000  171.23894334
     atom   10 type  2   force =    -1.21819438    0.00000000  171.87918043
     atom   11 type  1   force =    -1.37704963   -0.64991682   62.52825765
     atom   12 type  1   force =     0.94279971   -0.64555083   65.13594819
     atom   13 type  1   force =     0.24183246   -0.00000000   37.12595219
     atom   14 type  1   force =    -0.02992691   -0.00000000   40.52379318
     atom   15 type  1   force =     0.26032503    0.00000000   25.56578980
     atom   16 type  1   force =    -0.26300780   -0.00000000   26.48011296
     atom   17 type  2   force =    -0.03177279    0.00000000   -0.00582107
     atom   18 type  2   force =    -0.16974563   -0.00000000   -0.00591774
     atom   19 type  1   force =    -0.37291828   -0.60910330   -0.00246522
     atom   20 type  1   force =     0.39754724   -0.70284705   -0.00247179
     atom   21 type  2   force =    -1.08271060   -0.00000000   -0.00604473
     atom   22 type  2   force =     1.65144357   -0.00000000   -0.00606420
     atom   23 type  1   force =    -0.37291548    0.60875514   -0.00246522
     atom   24 type  1   force =     0.39754780    0.70249935   -0.00247179
     atom   25 type  1   force =     0.26033562   -0.00000000  -25.56755711
     atom   26 type  1   force =    -0.26300014   -0.00000000  -26.48189171
     atom   27 type  1   force =     0.24183329   -0.00000000  -37.12769724
     atom   28 type  1   force =    -0.02991872    0.00000000  -40.52561523
     atom   29 type  2   force =    -7.08444361   -0.00000000 -171.85983503
     atom   30 type  2   force =     6.91390958   -0.00000000 -172.96376965
     atom   31 type  1   force =    -1.37703848    0.64993794  -62.53071269
     atom   32 type  1   force =     0.94278502    0.64556733  -65.13842306
     atom   33 type  2   force =     1.51801443   -0.00000000 -171.24480988
     atom   34 type  2   force =    -1.21822170    0.00000000 -171.88493922
     atom   35 type  1   force =    -1.37703848   -0.64993794  -62.53071269
     atom   36 type  1   force =     0.94278502   -0.64556733  -65.13842306
     atom   37 type  1   force =     0.27093738   -0.00000000  -94.54699500
     atom   38 type  1   force =    -0.24631834   -0.00000000  -90.77883227
     atom   39 type  1   force =     1.73074569    0.00000000  -96.28518012
     atom   40 type  1   force =    -0.23010093    0.00000000  -98.69728759
     atom   41 type  3   force =    -2.65164448   -0.00000000   16.31512791
     atom   42 type  3   force =    -2.65164448   -0.00000000  -16.31512791
     atom   43 type  3   force =    -0.05295235   -2.16215782   17.05624296
     atom   44 type  3   force =    -0.05295235   -2.16215782  -17.05624296
     atom   45 type  3   force =    -0.05295235    2.16215782   17.05624296
     atom   46 type  3   force =    -0.05295235    2.16215782  -17.05624296
     The core correction contribution to forces
     atom    1 type  1   force =    -0.01732298   -0.00000000   -0.00542377
     atom    2 type  1   force =    -0.00020063    0.00000000   -0.01005386
     atom    3 type  1   force =    -0.00008010    0.00000000   -0.01223272
     atom    4 type  1   force =     0.00015932    0.00000000    0.01390010
     atom    5 type  2   force =     0.00000000    0.00000000    0.00000000
     atom    6 type  2   force =     0.00000000    0.00000000    0.00000000
     atom    7 type  1   force =     0.00015755    0.00035277    0.00083462
     atom    8 type  1   force =     0.00070391    0.00031134   -0.00010500
     atom    9 type  2   force =     0.00000000    0.00000000    0.00000000
     atom   10 type  2   force =     0.00000000    0.00000000    0.00000000
     atom   11 type  1   force =     0.00015755   -0.00035277    0.00083462
     atom   12 type  1   force =     0.00070391   -0.00031134   -0.00010500
     atom   13 type  1   force =    -0.00011906   -0.00000000    0.00244648
     atom   14 type  1   force =    -0.00015529   -0.00000000   -0.00152751
     atom   15 type  1   force =     0.00003253   -0.00000000   -0.00023764
     atom   16 type  1   force =    -0.00026433   -0.00000000   -0.00175871
     atom   17 type  2   force =     0.00000000    0.00000000    0.00000000
     atom   18 type  2   force =     0.00000000    0.00000000    0.00000000
     atom   19 type  1   force =     0.00025891   -0.00040844   -0.00000205
     atom   20 type  1   force =     0.00000322   -0.00033578   -0.00000207
     atom   21 type  2   force =     0.00000000    0.00000000    0.00000000
     atom   22 type  2   force =     0.00000000    0.00000000    0.00000000
     atom   23 type  1   force =     0.00025892    0.00040792   -0.00000205
     atom   24 type  1   force =     0.00000322    0.00033527   -0.00000207
     atom   25 type  1   force =     0.00003250   -0.00000000    0.00023547
     atom   26 type  1   force =    -0.00026426   -0.00000000    0.00175663
     atom   27 type  1   force =    -0.00011907   -0.00000000   -0.00244884
     atom   28 type  1   force =    -0.00015529    0.00000000    0.00152521
     atom   29 type  2   force =     0.00000000    0.00000000    0.00000000
     atom   30 type  2   force =     0.00000000    0.00000000    0.00000000
     atom   31 type  1   force =     0.00015750    0.00035279   -0.00083646
     atom   32 type  1   force =     0.00070395    0.00031148    0.00010308
     atom   33 type  2   force =     0.00000000    0.00000000    0.00000000
     atom   34 type  2   force =     0.00000000    0.00000000    0.00000000
     atom   35 type  1   force =     0.00015750   -0.00035279   -0.00083646
     atom   36 type  1   force =     0.00070395   -0.00031148    0.00010308
     atom   37 type  1   force =    -0.00008000   -0.00000000    0.01222895
     atom   38 type  1   force =     0.00015933   -0.00000000   -0.01390380
     atom   39 type  1   force =    -0.01732372    0.00000000    0.00542157
     atom   40 type  1   force =    -0.00020084   -0.00000000    0.01005168
     atom   41 type  3   force =     0.00000000    0.00000000    0.00000000
     atom   42 type  3   force =     0.00000000    0.00000000    0.00000000
     atom   43 type  3   force =     0.00000000    0.00000000    0.00000000
     atom   44 type  3   force =     0.00000000    0.00000000    0.00000000
     atom   45 type  3   force =     0.00000000    0.00000000    0.00000000
     atom   46 type  3   force =     0.00000000    0.00000000    0.00000000
     The Hubbard contrib.    to forces
     atom    1 type  1   force =     0.00000000    0.00000000    0.00000000
     atom    2 type  1   force =     0.00000000    0.00000000    0.00000000
     atom    3 type  1   force =     0.00000000    0.00000000    0.00000000
     atom    4 type  1   force =     0.00000000    0.00000000    0.00000000
     atom    5 type  2   force =     0.00000000    0.00000000    0.00000000
     atom    6 type  2   force =     0.00000000    0.00000000    0.00000000
     atom    7 type  1   force =     0.00000000    0.00000000    0.00000000
     atom    8 type  1   force =     0.00000000    0.00000000    0.00000000
     atom    9 type  2   force =     0.00000000    0.00000000    0.00000000
     atom   10 type  2   force =     0.00000000    0.00000000    0.00000000
     atom   11 type  1   force =     0.00000000    0.00000000    0.00000000
     atom   12 type  1   force =     0.00000000    0.00000000    0.00000000
     atom   13 type  1   force =     0.00000000    0.00000000    0.00000000
     atom   14 type  1   force =     0.00000000    0.00000000    0.00000000
     atom   15 type  1   force =     0.00000000    0.00000000    0.00000000
     atom   16 type  1   force =     0.00000000    0.00000000    0.00000000
     atom   17 type  2   force =     0.00000000    0.00000000    0.00000000
     atom   18 type  2   force =     0.00000000    0.00000000    0.00000000
     atom   19 type  1   force =     0.00000000    0.00000000    0.00000000
     atom   20 type  1   force =     0.00000000    0.00000000    0.00000000
     atom   21 type  2   force =     0.00000000    0.00000000    0.00000000
     atom   22 type  2   force =     0.00000000    0.00000000    0.00000000
     atom   23 type  1   force =     0.00000000    0.00000000    0.00000000
     atom   24 type  1   force =     0.00000000    0.00000000    0.00000000
     atom   25 type  1   force =     0.00000000    0.00000000    0.00000000
     atom   26 type  1   force =     0.00000000    0.00000000    0.00000000
     atom   27 type  1   force =     0.00000000    0.00000000    0.00000000
     atom   28 type  1   force =     0.00000000    0.00000000    0.00000000
     atom   29 type  2   force =     0.00000000    0.00000000    0.00000000
     atom   30 type  2   force =     0.00000000    0.00000000    0.00000000
     atom   31 type  1   force =     0.00000000    0.00000000    0.00000000
     atom   32 type  1   force =     0.00000000    0.00000000    0.00000000
     atom   33 type  2   force =     0.00000000    0.00000000    0.00000000
     atom   34 type  2   force =     0.00000000    0.00000000    0.00000000
     atom   35 type  1   force =     0.00000000    0.00000000    0.00000000
     atom   36 type  1   force =     0.00000000    0.00000000    0.00000000
     atom   37 type  1   force =     0.00000000    0.00000000    0.00000000
     atom   38 type  1   force =     0.00000000    0.00000000    0.00000000
     atom   39 type  1   force =     0.00000000    0.00000000    0.00000000
     atom   40 type  1   force =     0.00000000    0.00000000    0.00000000
     atom   41 type  3   force =     0.00000000    0.00000000    0.00000000
     atom   42 type  3   force =     0.00000000    0.00000000    0.00000000
     atom   43 type  3   force =     0.00000000    0.00000000    0.00000000
     atom   44 type  3   force =     0.00000000    0.00000000    0.00000000
     atom   45 type  3   force =     0.00000000    0.00000000    0.00000000
     atom   46 type  3   force =     0.00000000    0.00000000    0.00000000
     The SCF correction term to forces
     atom    1 type  1   force =     0.00000032    0.00000000   -0.00000144
     atom    2 type  1   force =    -0.00000029    0.00000000   -0.00000110
     atom    3 type  1   force =     0.00000056   -0.00000000   -0.00000135
     atom    4 type  1   force =    -0.00000084    0.00000000   -0.00000194
     atom    5 type  2   force =     0.00000187   -0.00000000   -0.00000517
     atom    6 type  2   force =    -0.00000157    0.00000000   -0.00000396
     atom    7 type  1   force =     0.00000078   -0.00000030   -0.00000198
     atom    8 type  1   force =    -0.00000077   -0.00000001   -0.00000168
     atom    9 type  2   force =     0.00000054   -0.00000000   -0.00000451
     atom   10 type  2   force =    -0.00000064    0.00000000   -0.00000546
     atom   11 type  1   force =     0.00000078    0.00000030   -0.00000198
     atom   12 type  1   force =    -0.00000077    0.00000001   -0.00000168
     atom   13 type  1   force =     0.00000016    0.00000000   -0.00000178
     atom   14 type  1   force =    -0.00000016   -0.00000000   -0.00000143
     atom   15 type  1   force =    -0.00000033    0.00000000   -0.00000153
     atom   16 type  1   force =     0.00000031   -0.00000000   -0.00000187
     atom   17 type  2   force =    -0.00000021    0.00000000   -0.00000002
     atom   18 type  2   force =     0.00000011   -0.00000000   -0.00000002
     atom   19 type  1   force =     0.00000085   -0.00000096   -0.00000001
     atom   20 type  1   force =    -0.00000083   -0.00000044   -0.00000001
     atom   21 type  2   force =     0.00000102    0.00000000   -0.00000002
     atom   22 type  2   force =    -0.00000104   -0.00000000   -0.00000002
     atom   23 type  1   force =     0.00000085    0.00000096   -0.00000001
     atom   24 type  1   force =    -0.00000083    0.00000044   -0.00000001
     atom   25 type  1   force =    -0.00000033    0.00000000    0.00000152
     atom   26 type  1   force =     0.00000031    0.00000000    0.00000186
     atom   27 type  1   force =     0.00000016    0.00000000    0.00000177
     atom   28 type  1   force =    -0.00000016   -0.00000000    0.00000142
     atom   29 type  2   force =     0.00000187   -0.00000000    0.00000516
     atom   30 type  2   force =    -0.00000157    0.00000000    0.00000395
     atom   31 type  1   force =     0.00000078   -0.00000030    0.00000198
     atom   32 type  1   force =    -0.00000077   -0.00000001    0.00000167
     atom   33 type  2   force =     0.00000055   -0.00000000    0.00000450
     atom   34 type  2   force =    -0.00000064    0.00000000    0.00000545
     atom   35 type  1   force =     0.00000078    0.00000030    0.00000198
     atom   36 type  1   force =    -0.00000077    0.00000001    0.00000167
     atom   37 type  1   force =     0.00000056    0.00000000    0.00000135
     atom   38 type  1   force =    -0.00000084    0.00000000    0.00000194
     atom   39 type  1   force =     0.00000032   -0.00000000    0.00000145
     atom   40 type  1   force =    -0.00000029    0.00000000    0.00000110
     atom   41 type  3   force =     0.00000016    0.00000000   -0.00000019
     atom   42 type  3   force =     0.00000016   -0.00000000    0.00000019
     atom   43 type  3   force =    -0.00000007   -0.00000006   -0.00000014
     atom   44 type  3   force =    -0.00000007   -0.00000006    0.00000014
     atom   45 type  3   force =    -0.00000007    0.00000006   -0.00000014
     atom   46 type  3   force =    -0.00000007    0.00000006    0.00000014

     Total force =     0.000362     Total SCF correction =     0.000017
     Energy error            =      2.8E-07 Ry
     Gradient error          =      8.6E-05 Ry/Bohr

     bfgs converged in  33 scf cycles and  32 bfgs steps
     (criteria: energy <  1.0E-04 Ry, force <  1.0E-04 Ry/Bohr)

     End of BFGS Geometry Optimization

     Final energy             =   -3435.0442660933 Ry

     File /storage/home/mgm6007/ixd4/Maria/StrainJin_Files/RuO2-110-0-035/RuO2-110-0-035.bfgs deleted, as requested
Begin final coordinates

ATOMIC_POSITIONS (crystal)
O             0.0139282041        0.5000000000        0.2692633990
O             0.4767289422        0.5000000000        0.2735087864
O             0.0000793209        0.0000000000        0.3070651427
O             0.4969677729        0.0000000000        0.2904965173
Ru            0.2347656689        0.0000000000        0.3584296392
Ru            0.7616275099        0.0000000000        0.3576890857
O             0.2481039444        0.3113912423        0.3595139606
O             0.7505953828        0.3131419024        0.3561338377
Ru            0.0010802943        0.5000000000        0.3569476605
Ru            0.5017442320        0.5000000000        0.3539119230
O             0.2481039444        0.6886087577        0.3595139606
O             0.7505953828        0.6868580976        0.3561338377
O            -0.0025974280        0.0000000000        0.4120100224
O             0.5012340077        0.0000000000        0.4107070215
O            -0.0046067976        0.5000000000        0.4456726323
O             0.4948873529        0.5000000000        0.4442584716
Ru           -0.0016446904        0.0000000000        0.5000010000
Ru            0.4989760694        0.0000000000        0.5000010000
O             0.2504552187        0.1863170881        0.5000010000
O             0.7482125171        0.1865737492        0.5000010000
Ru            0.2462570660        0.5000000000        0.5000010000
Ru            0.7455893500        0.5000000000        0.5000010000
O             0.2504552187        0.8136839119        0.5000010000
O             0.7482125171        0.8134272508        0.5000010000
O            -0.0046067976        0.5000000000        0.5543283677
O             0.4948873529        0.5000000000        0.5557425284
O            -0.0025974280        0.0000000000        0.5879909776
O             0.5012340077        0.0000000000        0.5892939785
Ru            0.2347656689        0.0000000000        0.6415713608
Ru            0.7616275099        0.0000000000        0.6423119143
O             0.2481039444        0.3113912423        0.6404870394
O             0.7505953828        0.3131419024        0.6438671623
Ru            0.0010802943        0.5000000000        0.6430533395
Ru            0.5017442320        0.5000000000        0.6460890770
O             0.2481039444        0.6886087577        0.6404870394
O             0.7505953828        0.6868580976        0.6438671623
O             0.0000793209        0.0000000000        0.6929368573
O             0.4969677729        0.0000000000        0.7095054827
O             0.0139282041        0.5000000000        0.7307376010
O             0.4767289422        0.5000000000        0.7264922136
H             0.1587567814        0.5000000000        0.2573019037
H             0.1587567814        0.5000000000        0.7426980963
H             0.4961919253        0.1329592945        0.2636754957
H             0.4961919253        0.1329592945        0.7363245043
H             0.4961919253        0.8670407055        0.2636754957
H             0.4961919253        0.8670407055        0.7363245043
End final coordinates



     Writing all to output data dir /storage/home/mgm6007/ixd4/Maria/StrainJin_Files/RuO2-110-0-035/RuO2-110-0-035.save/
 
     init_run     :    436.54s CPU    993.89s WALL (       1 calls)
     electrons    :  42430.87s CPU 141678.68s WALL (      33 calls)
     update_pot   :     60.45s CPU     70.19s WALL (      32 calls)
     forces       :     57.62s CPU     68.45s WALL (      33 calls)

     Called by init_run:
     wfcinit      :      0.50s CPU      0.51s WALL (       1 calls)
     potinit      :    337.15s CPU    719.03s WALL (       1 calls)
     hinit0       :     98.42s CPU    273.85s WALL (       1 calls)

     Called by electrons:
     c_bands      :   1804.63s CPU   2774.89s WALL (     640 calls)
     sum_band     :    396.49s CPU    603.09s WALL (     640 calls)
     v_of_rho     :    145.54s CPU    172.82s WALL (     646 calls)
     newd         :     48.61s CPU     58.85s WALL (     646 calls)
     PAW_pot      :     89.96s CPU    112.75s WALL (     678 calls)
     mix_rho      :   4340.63s CPU   8196.47s WALL (     640 calls)

     Called by c_bands:
     init_us_2    :      8.98s CPU     10.05s WALL (    1313 calls)
     init_us_2:cp :      8.98s CPU     10.04s WALL (    1313 calls)
     cegterg      :   1770.72s CPU   2732.62s WALL (     640 calls)

     Called by *egterg:
     cdiaghg      :    110.75s CPU    147.16s WALL (    1984 calls)
     h_psi        :   1260.15s CPU   2055.61s WALL (    2044 calls)
     s_psi        :     61.82s CPU     73.11s WALL (    2044 calls)
     g_psi        :      1.93s CPU      2.15s WALL (    1403 calls)

     Called by h_psi:
     h_psi:calbec :     90.97s CPU    122.64s WALL (    2044 calls)
     vloc_psi     :   1101.90s CPU   1853.85s WALL (    2044 calls)
     add_vuspsi   :     63.07s CPU     74.70s WALL (    2044 calls)

     General routines
     calbec       :    140.11s CPU    186.47s WALL (    2848 calls)
     fft          :   8159.33s CPU   8333.29s WALL (    8754 calls)
     ffts         :    547.15s CPU    948.01s WALL (  251348 calls)
     fftw         :   1266.12s CPU   2157.22s WALL (  747394 calls)
     interpolate  :   8092.78s CPU   8251.24s WALL (     646 calls)
 
     Parallel routines
 
     Environ routines
 
     PWSCF        :     12h28m CPU   1d17h20m WALL

 
   This run was terminated on:   4:56:24  28Jul2023            

=------------------------------------------------------------------------------=
   JOB DONE.
=------------------------------------------------------------------------------=
