
     Program PWSCF v.7.2 starts on 26Jul2023 at 11:24:47 
        Git branch: heads/qe-7.2
        Last git commit: b4c5e8deeb7d1863e7553a87b45f8d22c21926a5
        Last git commit date: Mon Mar 27 16:12:09 2023 +0000
        Last git commit subject: Merge branch 'merge_fix_hubbard' into 'develop'

     This program is part of the open-source Quantum ESPRESSO suite
     for quantum simulation of materials; please cite
         "P. Giannozzi et al., J. Phys.:Condens. Matter 21 395502 (2009);
         "P. Giannozzi et al., J. Phys.:Condens. Matter 29 465901 (2017);
         "P. Giannozzi et al., J. Chem. Phys. 152 154105 (2020);
          URL http://www.quantum-espresso.org", 
     in publications or presentations arising from this work. More details at
     http://www.quantum-espresso.org/quote

     Parallel version (MPI), running on    20 processors

     MPI processes distributed on     1 nodes
     78597 MiB available memory on the printing compute node when the environment starts
 
     Reading input from RuO2-110-0-012345.in

     Current dimensions of program PWSCF are:
     Max number of different atomic species (ntypx) = 10
     Max number of k-points (npk) =  40000
     Max angular momentum in pseudopotentials (lmaxx) =  4
 
     Reading input from environ.in:
     * Environ restarting
     * setting up water environment
     * using electronic solvent mode
     * setting boundary derivatives method to SCCS default
     
     file O.pbe-n-kjpaw_psl.0.1.UPF: wavefunction(s)  2P renormalized
     Found identity + (  0.5000  0.0000 -0.0000) symmetry
     This is a supercell, fractional translations are disabled
     Message from routine setup:
     using ibrav=0 with symmetry is DISCOURAGED, use correct ibrav instead
 
     R & G space division:  proc/nbgrp/npool/nimage =      20
     Subspace diagonalization in iterative solution of the eigenvalue problem:
     one sub-group per band group will be used
     scalapack distributed-memory algorithm (size of sub-group:  2*  2 procs)

 
     Parallelization info
     --------------------
     sticks:   dense  smooth     PW     G-vecs:    dense   smooth      PW
     Min         276     110     29                54982    13912    1877
     Max         277     111     30                54993    13923    1888
     Sum        5537    2217    585              1099789   278381   37601
 
     Using Slab Decomposition
 


     bravais-lattice index     =            0
     lattice parameter (alat)  =      12.3824  a.u.
     unit-cell volume          =    5825.9133 (a.u.)^3
     number of atoms/cell      =           52
     number of atomic types    =            3
     number of electrons       =       372.00
     number of Kohn-Sham states=          223
     kinetic-energy cutoff     =      50.0000  Ry
     charge density cutoff     =     500.0000  Ry
     scf convergence threshold =      1.0E-09
     mixing beta               =       0.7000
     number of iterations used =            8  local-TF  mixing
     energy convergence thresh.=      1.0E-04
     force convergence thresh. =      1.0E-04
     Exchange-correlation= PBE
                           (   1   4   3   4   0   0   0)
     nstep                     =          200


     ================================================================================
 
                                  Environ Setup Summary

     ================================================================================
 
     Please cite

          O. Andreussi, I. Dabo and N. Marzari, J. Chem. Phys. 136, 064102 (2012)

     in publications or presentations arising from this work.

     ================================================================================
 
     Parameters
     ==========

     compensation onset threshold      =               0.1000E+00
     static permittivity               =                    78.30
     surface tension in input (dyn/cm) =                    47.90
     surface tension in internal units =               0.6153E-04
     external pressure in input (GPa)  =                    -0.36
     external pressure in inter. units =              -0.2447E-04

     Solvent Boundary
     ================

     solvent mode                      =               electronic
     derivatives method                =                    chain
     numerical core for derivatives    =                      fft
     switching function adopted        =                     SCCS
     density limit for vacuum region   =               0.5000E-02
     density limit for bulk solvent    =               0.1000E-03

     Electrostatic Setup
     ===================

     electrostatic problem to solve    =              generalized
     numerical solver adopted          =                       cg
     type of auxiliary density adopted =                     none
     numerical core for poisson        =                      fft
     type of pbc corrections           =                parabolic
     numerical core for corrections    =                      1da

     ================================================================================
 

     celldm(1)=  12.382447  celldm(2)=   0.000000  celldm(3)=   0.000000
     celldm(4)=   0.000000  celldm(5)=   0.000000  celldm(6)=   0.000000

     crystal axes: (cart. coord. in units of alat)
               a(1) = (   1.000000   0.000000   0.000000 )  
               a(2) = (   0.000000   0.908473   0.000000 )  
               a(3) = (   0.000000   0.000000   3.377790 )  

     reciprocal axes: (cart. coord. in units 2 pi/alat)
               b(1) = (  1.000000  0.000000  0.000000 )  
               b(2) = (  0.000000  1.100748  0.000000 )  
               b(3) = (  0.000000  0.000000  0.296052 )  


     PseudoPot. # 1 for O  read from file:
     /gpfs/group/ixd4/default/Simon/pseudopotentials/materialscloud/SSSP_1.3.0_PBE_efficiency/O.pbe-n-kjpaw_psl.0.1.UPF
     MD5 check sum: 0234752ac141de4415c5fc33072bef88
     Pseudo is Projector augmented-wave + core cor, Zval =  6.0
     Generated using "atomic" code by A. Dal Corso  v.5.0.99 svn rev. 10869
     Shape of augmentation charge: BESSEL
     Using radial grid of 1095 points,  4 beta functions with: 
                l(1) =   0
                l(2) =   0
                l(3) =   1
                l(4) =   1
     Q(r) pseudized with 0 coefficients 


     PseudoPot. # 2 for Ru read from file:
     /gpfs/group/ixd4/default/Simon/pseudopotentials/materialscloud/SSSP_1.3.0_PBE_efficiency/Ru_ONCV_PBE-1.0.oncvpsp.upf
     MD5 check sum: be037bb81c227cfb9b1461a9f099f4bd
     Pseudo is Norm-conserving, Zval = 16.0
     Generated using ONCVPSP code by D. R. Hamann
     Using radial grid of 1458 points,  6 beta functions with: 
                l(1) =   0
                l(2) =   0
                l(3) =   1
                l(4) =   1
                l(5) =   2
                l(6) =   2

     PseudoPot. # 3 for H  read from file:
     /gpfs/group/ixd4/default/Simon/pseudopotentials/materialscloud/SSSP_1.3.0_PBE_efficiency/H.pbe-rrkjus_psl.1.0.0.UPF
     MD5 check sum: f52b6d4d1c606e5624b1dc7b2218f220
     Pseudo is Ultrasoft, Zval =  1.0
     Generated using "atomic" code by A. Dal Corso  v.5.1
     Using radial grid of  929 points,  2 beta functions with: 
                l(1) =   0
                l(2) =   0
     Q(r) pseudized with 0 coefficients 


     atomic species   valence    mass     pseudopotential
        O              6.00    15.99940     O ( 1.00)
        Ru            16.00   101.07000     Ru( 1.00)
        H              1.00     1.00794     H ( 1.00)

      4 Sym. Ops. (no inversion) found



   Cartesian axes

     site n.     atom                  positions (alat units)
         1           O   tau(   1) = (   0.0014491   0.4542364   0.8894096  )
         2           O   tau(   2) = (   0.5014490   0.4542364   0.8894094  )
         3           O   tau(   3) = (  -0.0032312   0.0000000   0.9682700  )
         4           O   tau(   4) = (   0.4967688   0.0000000   0.9682700  )
         5           Ru  tau(   5) = (   0.2471517   0.0000000   1.2153139  )
         6           Ru  tau(   6) = (   0.7471517   0.0000000   1.2153139  )
         7           O   tau(   7) = (   0.2475809   0.2755337   1.1988579  )
         8           O   tau(   8) = (   0.7475810   0.2755337   1.1988579  )
         9           Ru  tau(   9) = (  -0.0029139   0.4542364   1.2039129  )
        10           Ru  tau(  10) = (   0.4970862   0.4542364   1.2039125  )
        11           O   tau(  11) = (   0.2475809   0.6329391   1.1988579  )
        12           O   tau(  12) = (   0.7475810   0.6329392   1.1988579  )
        13           O   tau(  13) = (  -0.0028141   0.0000000   1.3932228  )
        14           O   tau(  14) = (   0.4971858   0.0000000   1.3932228  )
        15           O   tau(  15) = (  -0.0030325   0.4542364   1.4992187  )
        16           O   tau(  16) = (   0.4969675   0.4542364   1.4992181  )
        17           Ru  tau(  17) = (  -0.0030299   0.0000000   1.6888985  )
        18           Ru  tau(  18) = (   0.4969701   0.0000000   1.6888985  )
        19           O   tau(  19) = (   0.2469045   0.1769850   1.6888985  )
        20           O   tau(  20) = (   0.7469044   0.1769850   1.6888985  )
        21           Ru  tau(  21) = (   0.2467997   0.4542364   1.6888985  )
        22           Ru  tau(  22) = (   0.7467992   0.4542364   1.6888985  )
        23           O   tau(  23) = (   0.2469045   0.7314888   1.6888985  )
        24           O   tau(  24) = (   0.7469044   0.7314888   1.6888985  )
        25           O   tau(  25) = (  -0.0030325   0.4542364   1.8785750  )
        26           O   tau(  26) = (   0.4969675   0.4542364   1.8785756  )
        27           O   tau(  27) = (  -0.0028141   0.0000000   1.9845709  )
        28           O   tau(  28) = (   0.4971858   0.0000000   1.9845709  )
        29           Ru  tau(  29) = (   0.2471517   0.0000000   2.1624798  )
        30           Ru  tau(  30) = (   0.7471517   0.0000000   2.1624798  )
        31           O   tau(  31) = (   0.2475809   0.2755337   2.1789358  )
        32           O   tau(  32) = (   0.7475810   0.2755337   2.1789358  )
        33           Ru  tau(  33) = (  -0.0029139   0.4542364   2.1738808  )
        34           Ru  tau(  34) = (   0.4970862   0.4542364   2.1738812  )
        35           O   tau(  35) = (   0.2475809   0.6329391   2.1789358  )
        36           O   tau(  36) = (   0.7475810   0.6329392   2.1789358  )
        37           O   tau(  37) = (  -0.0032312   0.0000000   2.4095271  )
        38           O   tau(  38) = (   0.4967688   0.0000000   2.4095271  )
        39           O   tau(  39) = (   0.0014491   0.4542364   2.4883841  )
        40           O   tau(  40) = (   0.5014490   0.4542364   2.4883843  )
        41           H   tau(  41) = (   0.1516868   0.4542364   0.8586745  )
        42           H   tau(  42) = (   0.1516868   0.4542364   2.5191158  )
        43           H   tau(  43) = (   0.6516871   0.4542364   0.8586743  )
        44           H   tau(  44) = (   0.6516871   0.4542364   2.5191160  )
        45           H   tau(  45) = (  -0.0048061   0.1121605   0.8833964  )
        46           H   tau(  46) = (  -0.0048061   0.1121605   2.4943939  )
        47           H   tau(  47) = (   0.4951939   0.1121605   0.8833964  )
        48           H   tau(  48) = (   0.4951939   0.1121605   2.4943940  )
        49           H   tau(  49) = (  -0.0048061   0.7963124   0.8833964  )
        50           H   tau(  50) = (  -0.0048061   0.7963124   2.4943939  )
        51           H   tau(  51) = (   0.4951939   0.7963124   0.8833964  )
        52           H   tau(  52) = (   0.4951939   0.7963124   2.4943940  )

     number of k points=     1  Marzari-Vanderbilt smearing, width (Ry)=  0.0300
                       cart. coord. in units 2pi/alat
        k(    1) = (   0.2500000   0.2751871   0.0000000), wk =   2.0000000

     Dense  grid:  1099789 G-vectors     FFT dimensions: (  90,  81, 300)

     Smooth grid:   278381 G-vectors     FFT dimensions: (  60,  54, 192)

     Estimated max dynamical RAM per process >     169.07 MB

     Estimated total dynamical RAM >       3.30 GB

     Check: negative core charge=   -0.000001

     Initial potential from superposition of free atoms

     starting charge     371.9932, renormalised to     372.0000

     add environment contribution to local potential
     Polarization accuracy = 3.3E-12, # of iterations =  20

     negative rho (up, down):  2.451E-05 0.000E+00
     Starting wfcs are  244 randomized atomic wfcs
     Checking if some PAW data can be deallocated... 

     total cpu time spent up to now is     2357.3 secs

     per-process dynamical memory:   139.3 Mb

     Self-consistent Calculation

     iteration #  1     ecut=    50.00 Ry     beta= 0.70
     Davidson diagonalization with overlap
     ethr =  1.00E-02,  avg # of iterations =  2.0

     negative rho (up, down):  1.729E-08 0.000E+00

     total cpu time spent up to now is     3288.2 secs

     total energy              =   -3440.50038885 Ry
     estimated scf accuracy    <       8.91194101 Ry
     electrostatic embedding   =      -0.00173884 Ry
     cavitation energy         =       0.01833531 Ry
     PV energy                 =      -0.08894964 Ry
     correction to one-el term =     229.62792253 Ry

     iteration #  2     ecut=    50.00 Ry     beta= 0.70
     Davidson diagonalization with overlap
     ethr =  2.40E-03,  avg # of iterations =  2.0

     total cpu time spent up to now is     4154.6 secs

     total energy              =   -3442.30792020 Ry
     estimated scf accuracy    <       1.47448708 Ry
     electrostatic embedding   =      -0.00308114 Ry
     cavitation energy         =       0.01803338 Ry
     PV energy                 =      -0.09053559 Ry
     correction to one-el term =     229.63241278 Ry

     iteration #  3     ecut=    50.00 Ry     beta= 0.70
     Davidson diagonalization with overlap
     ethr =  3.96E-04,  avg # of iterations =  8.0

     total cpu time spent up to now is     4982.1 secs

     total energy              =   -3442.35799386 Ry
     estimated scf accuracy    <       0.63918338 Ry
     electrostatic embedding   =      -0.00362674 Ry
     cavitation energy         =       0.01812284 Ry
     PV energy                 =      -0.09079077 Ry
     correction to one-el term =     229.63383233 Ry

     iteration #  4     ecut=    50.00 Ry     beta= 0.70
     Davidson diagonalization with overlap
     ethr =  1.72E-04,  avg # of iterations =  1.0

     total cpu time spent up to now is     5679.9 secs

     total energy              =   -3442.32133725 Ry
     estimated scf accuracy    <       0.29006626 Ry
     electrostatic embedding   =      -0.00414110 Ry
     cavitation energy         =       0.01852748 Ry
     PV energy                 =      -0.09046029 Ry
     correction to one-el term =     229.63473650 Ry

     iteration #  5     ecut=    50.00 Ry     beta= 0.70
     Davidson diagonalization with overlap
     ethr =  7.80E-05,  avg # of iterations =  5.0

     total cpu time spent up to now is     6487.0 secs

     total energy              =   -3442.31386539 Ry
     estimated scf accuracy    <       0.40047586 Ry
     electrostatic embedding   =      -0.00438602 Ry
     cavitation energy         =       0.01935571 Ry
     PV energy                 =      -0.08921440 Ry
     correction to one-el term =     229.63457418 Ry

     iteration #  6     ecut=    50.00 Ry     beta= 0.70
     Davidson diagonalization with overlap
     ethr =  7.80E-05,  avg # of iterations =  2.0

     total cpu time spent up to now is     7291.4 secs

     total energy              =   -3442.29239447 Ry
     estimated scf accuracy    <       0.15884854 Ry
     electrostatic embedding   =      -0.00436386 Ry
     cavitation energy         =       0.02014238 Ry
     PV energy                 =      -0.08778134 Ry
     correction to one-el term =     229.63385213 Ry

     iteration #  7     ecut=    50.00 Ry     beta= 0.70
     Davidson diagonalization with overlap
     ethr =  4.27E-05,  avg # of iterations = 10.0

     add environment contribution to local potential
     Polarization accuracy = 3.8E-12, # of iterations =  43

     total cpu time spent up to now is     8140.5 secs

     total energy              =   -3442.29172625 Ry
     estimated scf accuracy    <       0.07351019 Ry
     electrostatic embedding   =      -0.00375456 Ry
     cavitation energy         =       0.02164530 Ry
     PV energy                 =      -0.08477220 Ry
     correction to one-el term =     229.63098143 Ry

     iteration #  8     ecut=    50.00 Ry     beta= 0.70
     Davidson diagonalization with overlap
     ethr =  1.98E-05,  avg # of iterations = 10.0

     add environment contribution to local potential
     Polarization accuracy = 5.2E-12, # of iterations =  40

     total cpu time spent up to now is     9025.7 secs

     total energy              =   -3442.33594273 Ry
     estimated scf accuracy    <       0.05021217 Ry
     electrostatic embedding   =      -0.07121128 Ry
     cavitation energy         =       0.02144683 Ry
     PV energy                 =      -0.08452485 Ry
     correction to one-el term =     159.39621433 Ry

     iteration #  9     ecut=    50.00 Ry     beta= 0.70
     Davidson diagonalization with overlap
     ethr =  1.35E-05,  avg # of iterations =  6.0

     add environment contribution to local potential
     Polarization accuracy = 9.1E-12, # of iterations =  37

     total cpu time spent up to now is     9779.6 secs

     total energy              =   -3442.33895915 Ry
     estimated scf accuracy    <       0.01708459 Ry
     electrostatic embedding   =      -0.06871386 Ry
     cavitation energy         =       0.02095883 Ry
     PV energy                 =      -0.08463751 Ry
     correction to one-el term =     160.59923566 Ry

     iteration # 10     ecut=    50.00 Ry     beta= 0.70
     Davidson diagonalization with overlap
     ethr =  4.59E-06,  avg # of iterations =  8.0

     add environment contribution to local potential
     Polarization accuracy = 8.4E-12, # of iterations =  37

     total cpu time spent up to now is    10645.5 secs

     total energy              =   -3442.33427538 Ry
     estimated scf accuracy    <       0.01128911 Ry
     electrostatic embedding   =      -0.06721970 Ry
     cavitation energy         =       0.02049787 Ry
     PV energy                 =      -0.08481495 Ry
     correction to one-el term =     162.03522122 Ry

     iteration # 11     ecut=    50.00 Ry     beta= 0.70
     Davidson diagonalization with overlap
     ethr =  3.03E-06,  avg # of iterations =  7.0

     negative rho (up, down):  6.405E-06 0.000E+00

     add environment contribution to local potential
     Polarization accuracy = 5.5E-12, # of iterations =  37

     total cpu time spent up to now is    11575.0 secs

     total energy              =   -3442.33416440 Ry
     estimated scf accuracy    <       0.00874603 Ry
     electrostatic embedding   =      -0.06659558 Ry
     cavitation energy         =       0.02019879 Ry
     PV energy                 =      -0.08499140 Ry
     correction to one-el term =     163.44848723 Ry

     iteration # 12     ecut=    50.00 Ry     beta= 0.70
     Davidson diagonalization with overlap
     ethr =  2.35E-06,  avg # of iterations =  6.0

     negative rho (up, down):  3.441E-06 0.000E+00

     add environment contribution to local potential
     Polarization accuracy = 2.9E-12, # of iterations =  36

     total cpu time spent up to now is    12442.0 secs

     total energy              =   -3442.33598768 Ry
     estimated scf accuracy    <       0.00456091 Ry
     electrostatic embedding   =      -0.06637719 Ry
     cavitation energy         =       0.02004318 Ry
     PV energy                 =      -0.08514097 Ry
     correction to one-el term =     164.90589484 Ry

     iteration # 13     ecut=    50.00 Ry     beta= 0.70
     Davidson diagonalization with overlap
     ethr =  1.23E-06,  avg # of iterations =  7.0

     negative rho (up, down):  6.029E-06 0.000E+00

     add environment contribution to local potential
     Polarization accuracy = 1.5E-12, # of iterations =  36

     total cpu time spent up to now is    13338.0 secs

     total energy              =   -3442.33687050 Ry
     estimated scf accuracy    <       0.00247340 Ry
     electrostatic embedding   =      -0.06405227 Ry
     cavitation energy         =       0.02001406 Ry
     PV energy                 =      -0.08523851 Ry
     correction to one-el term =     166.24854179 Ry

     iteration # 14     ecut=    50.00 Ry     beta= 0.70
     Davidson diagonalization with overlap
     ethr =  6.65E-07,  avg # of iterations =  9.0

     negative rho (up, down):  1.060E-06 0.000E+00

     add environment contribution to local potential
     Polarization accuracy = 1.7E-12, # of iterations =  36

     total cpu time spent up to now is    14389.1 secs

     total energy              =   -3442.33735499 Ry
     estimated scf accuracy    <       0.00142744 Ry
     electrostatic embedding   =      -0.06184252 Ry
     cavitation energy         =       0.02003286 Ry
     PV energy                 =      -0.08527185 Ry
     correction to one-el term =     167.21773368 Ry

     iteration # 15     ecut=    50.00 Ry     beta= 0.70
     Davidson diagonalization with overlap
     ethr =  3.84E-07,  avg # of iterations =  7.0

     negative rho (up, down):  2.908E-05 0.000E+00

     add environment contribution to local potential
     Polarization accuracy = 1.7E-12, # of iterations =  36

     total cpu time spent up to now is    15436.0 secs

     total energy              =   -3442.33759026 Ry
     estimated scf accuracy    <       0.00065822 Ry
     electrostatic embedding   =      -0.05952464 Ry
     cavitation energy         =       0.02005349 Ry
     PV energy                 =      -0.08527819 Ry
     correction to one-el term =     167.83904899 Ry

     iteration # 16     ecut=    50.00 Ry     beta= 0.70
     Davidson diagonalization with overlap
     ethr =  1.77E-07,  avg # of iterations =  9.0

     negative rho (up, down):  1.429E-03 0.000E+00

     add environment contribution to local potential
     Polarization accuracy = 1.7E-12, # of iterations =  36

     total cpu time spent up to now is    16340.8 secs

     total energy              =   -3442.33771561 Ry
     estimated scf accuracy    <       0.00019464 Ry
     electrostatic embedding   =      -0.05703077 Ry
     cavitation energy         =       0.02006096 Ry
     PV energy                 =      -0.08528771 Ry
     correction to one-el term =     168.38340603 Ry

     iteration # 17     ecut=    50.00 Ry     beta= 0.70
     Davidson diagonalization with overlap
     ethr =  5.23E-08,  avg # of iterations =  5.0

     negative rho (up, down):  9.625E-04 0.000E+00

     add environment contribution to local potential
     Polarization accuracy = 9.9E-12, # of iterations =  35

     total cpu time spent up to now is    17331.5 secs

     total energy              =   -3442.33774558 Ry
     estimated scf accuracy    <       0.00007160 Ry
     electrostatic embedding   =      -0.05557891 Ry
     cavitation energy         =       0.02005536 Ry
     PV energy                 =      -0.08529360 Ry
     correction to one-el term =     168.67133747 Ry

     iteration # 18     ecut=    50.00 Ry     beta= 0.70
     Davidson diagonalization with overlap
     ethr =  1.92E-08,  avg # of iterations =  2.0

     negative rho (up, down):  3.904E-04 0.000E+00

     add environment contribution to local potential
     Polarization accuracy = 4.8E-12, # of iterations =  35

     total cpu time spent up to now is    18255.4 secs

     total energy              =   -3442.33774534 Ry
     estimated scf accuracy    <       0.00001250 Ry
     electrostatic embedding   =      -0.05476338 Ry
     cavitation energy         =       0.02003477 Ry
     PV energy                 =      -0.08529634 Ry
     correction to one-el term =     168.80137857 Ry

     iteration # 19     ecut=    50.00 Ry     beta= 0.70
     Davidson diagonalization with overlap
     ethr =  3.36E-09,  avg # of iterations =  6.0

     negative rho (up, down):  1.958E-04 0.000E+00

     add environment contribution to local potential
     Polarization accuracy = 4.0E-12, # of iterations =  35

     total cpu time spent up to now is    19286.7 secs

     total energy              =   -3442.33774320 Ry
     estimated scf accuracy    <       0.00000288 Ry
     electrostatic embedding   =      -0.05424035 Ry
     cavitation energy         =       0.02001172 Ry
     PV energy                 =      -0.08529659 Ry
     correction to one-el term =     168.89659516 Ry

     iteration # 20     ecut=    50.00 Ry     beta= 0.70
     Davidson diagonalization with overlap
     ethr =  7.74E-10,  avg # of iterations =  2.0

     negative rho (up, down):  2.275E-04 0.000E+00

     add environment contribution to local potential
     Polarization accuracy = 5.8E-12, # of iterations =  34

     total cpu time spent up to now is    20255.6 secs

     total energy              =   -3442.33774402 Ry
     estimated scf accuracy    <       0.00000178 Ry
     electrostatic embedding   =      -0.05426365 Ry
     cavitation energy         =       0.02000719 Ry
     PV energy                 =      -0.08529287 Ry
     correction to one-el term =     168.89035372 Ry

     iteration # 21     ecut=    50.00 Ry     beta= 0.70
     Davidson diagonalization with overlap
     ethr =  4.78E-10,  avg # of iterations =  1.0

     negative rho (up, down):  1.227E-04 0.000E+00

     add environment contribution to local potential
     Polarization accuracy = 5.0E-12, # of iterations =  35

     total cpu time spent up to now is    21224.3 secs

     total energy              =   -3442.33774395 Ry
     estimated scf accuracy    <       0.00000044 Ry
     electrostatic embedding   =      -0.05420721 Ry
     cavitation energy         =       0.02000656 Ry
     PV energy                 =      -0.08529002 Ry
     correction to one-el term =     168.89534407 Ry

     iteration # 22     ecut=    50.00 Ry     beta= 0.70
     Davidson diagonalization with overlap
     ethr =  1.19E-10,  avg # of iterations =  2.0

     negative rho (up, down):  1.169E-04 0.000E+00

     add environment contribution to local potential
     Polarization accuracy = 5.8E-12, # of iterations =  36

     total cpu time spent up to now is    22199.3 secs

     total energy              =   -3442.33774522 Ry
     estimated scf accuracy    <       0.00000038 Ry
     electrostatic embedding   =      -0.05432047 Ry
     cavitation energy         =       0.02000810 Ry
     PV energy                 =      -0.08528694 Ry
     correction to one-el term =     168.86308154 Ry

     iteration # 23     ecut=    50.00 Ry     beta= 0.70
     Davidson diagonalization with overlap
     ethr =  1.02E-10,  avg # of iterations =  1.0

     negative rho (up, down):  9.403E-05 0.000E+00

     add environment contribution to local potential
     Polarization accuracy = 5.1E-12, # of iterations =  35

     total cpu time spent up to now is    23140.6 secs

     total energy              =   -3442.33774557 Ry
     estimated scf accuracy    <       0.00000012 Ry
     electrostatic embedding   =      -0.05432246 Ry
     cavitation energy         =       0.02000819 Ry
     PV energy                 =      -0.08528561 Ry
     correction to one-el term =     168.85779480 Ry

     iteration # 24     ecut=    50.00 Ry     beta= 0.70
     Davidson diagonalization with overlap
     ethr =  3.21E-11,  avg # of iterations =  3.0

     negative rho (up, down):  7.957E-05 0.000E+00

     add environment contribution to local potential
     Polarization accuracy = 5.0E-12, # of iterations =  35

     total cpu time spent up to now is    24170.6 secs

     total energy              =   -3442.33774590 Ry
     estimated scf accuracy    <       0.00000008 Ry
     electrostatic embedding   =      -0.05433503 Ry
     cavitation energy         =       0.02000892 Ry
     PV energy                 =      -0.08528536 Ry
     correction to one-el term =     168.84921658 Ry

     iteration # 25     ecut=    50.00 Ry     beta= 0.70
     Davidson diagonalization with overlap
     ethr =  2.17E-11,  avg # of iterations =  1.0

     negative rho (up, down):  7.351E-05 0.000E+00

     add environment contribution to local potential
     Polarization accuracy = 4.9E-12, # of iterations =  35

     total cpu time spent up to now is    25078.1 secs

     total energy              =   -3442.33774623 Ry
     estimated scf accuracy    <       0.00000007 Ry
     electrostatic embedding   =      -0.05434687 Ry
     cavitation energy         =       0.02000936 Ry
     PV energy                 =      -0.08528528 Ry
     correction to one-el term =     168.84321728 Ry

     iteration # 26     ecut=    50.00 Ry     beta= 0.70
     Davidson diagonalization with overlap
     ethr =  1.84E-11,  avg # of iterations =  1.0

     negative rho (up, down):  7.412E-05 0.000E+00

     add environment contribution to local potential
     Polarization accuracy = 4.8E-12, # of iterations =  35

     total cpu time spent up to now is    26017.4 secs

     total energy              =   -3442.33774646 Ry
     estimated scf accuracy    <       0.00000007 Ry
     electrostatic embedding   =      -0.05434893 Ry
     cavitation energy         =       0.02000945 Ry
     PV energy                 =      -0.08528541 Ry
     correction to one-el term =     168.84173795 Ry

     iteration # 27     ecut=    50.00 Ry     beta= 0.70
     Davidson diagonalization with overlap
     ethr =  1.79E-11,  avg # of iterations =  1.0

     negative rho (up, down):  6.585E-05 0.000E+00

     add environment contribution to local potential
     Polarization accuracy = 6.1E-12, # of iterations =  35

     total cpu time spent up to now is    26962.0 secs

     total energy              =   -3442.33774661 Ry
     estimated scf accuracy    <       0.00000006 Ry
     electrostatic embedding   =      -0.05434390 Ry
     cavitation energy         =       0.02000933 Ry
     PV energy                 =      -0.08528567 Ry
     correction to one-el term =     168.84362411 Ry

     iteration # 28     ecut=    50.00 Ry     beta= 0.70
     Davidson diagonalization with overlap
     ethr =  1.71E-11,  avg # of iterations =  2.0

     negative rho (up, down):  6.176E-05 0.000E+00

     add environment contribution to local potential
     Polarization accuracy = 3.1E-12, # of iterations =  35

     total cpu time spent up to now is    27888.8 secs

     total energy              =   -3442.33774768 Ry
     estimated scf accuracy    <       0.00000005 Ry
     electrostatic embedding   =      -0.05434373 Ry
     cavitation energy         =       0.02000933 Ry
     PV energy                 =      -0.08528617 Ry
     correction to one-el term =     168.84382363 Ry

     iteration # 29     ecut=    50.00 Ry     beta= 0.70
     Davidson diagonalization with overlap
     ethr =  1.37E-11,  avg # of iterations =  2.0

     negative rho (up, down):  6.574E-05 0.000E+00

     add environment contribution to local potential
     Polarization accuracy = 4.3E-12, # of iterations =  34

     total cpu time spent up to now is    28804.5 secs

     total energy              =   -3442.33774910 Ry
     estimated scf accuracy    <       0.00000004 Ry
     electrostatic embedding   =      -0.05434675 Ry
     cavitation energy         =       0.02000945 Ry
     PV energy                 =      -0.08528620 Ry
     correction to one-el term =     168.84302898 Ry

     iteration # 30     ecut=    50.00 Ry     beta= 0.70
     Davidson diagonalization with overlap
     ethr =  1.11E-11,  avg # of iterations =  5.0

     negative rho (up, down):  6.242E-05 0.000E+00

     add environment contribution to local potential
     Polarization accuracy = 4.0E-12, # of iterations =  35

     total cpu time spent up to now is    29709.6 secs

     total energy              =   -3442.33775258 Ry
     estimated scf accuracy    <       0.00000004 Ry
     electrostatic embedding   =      -0.05434603 Ry
     cavitation energy         =       0.02000961 Ry
     PV energy                 =      -0.08528602 Ry
     correction to one-el term =     168.84385571 Ry

     iteration # 31     ecut=    50.00 Ry     beta= 0.70
     Davidson diagonalization with overlap
     ethr =  9.96E-12,  avg # of iterations =  2.0

     negative rho (up, down):  6.719E-05 0.000E+00

     add environment contribution to local potential
     Polarization accuracy = 4.3E-12, # of iterations =  35

     total cpu time spent up to now is    30737.2 secs

     total energy              =   -3442.33775474 Ry
     estimated scf accuracy    <       0.00000002 Ry
     electrostatic embedding   =      -0.05435569 Ry
     cavitation energy         =       0.02000975 Ry
     PV energy                 =      -0.08528561 Ry
     correction to one-el term =     168.84053905 Ry

     iteration # 32     ecut=    50.00 Ry     beta= 0.70
     Davidson diagonalization with overlap
     ethr =  4.62E-12,  avg # of iterations =  5.0

     negative rho (up, down):  6.885E-05 0.000E+00

     add environment contribution to local potential
     Polarization accuracy = 4.4E-12, # of iterations =  35

     total cpu time spent up to now is    31492.5 secs

     total energy              =   -3442.33775843 Ry
     estimated scf accuracy    <       0.00000001 Ry
     electrostatic embedding   =      -0.05435293 Ry
     cavitation energy         =       0.02000958 Ry
     PV energy                 =      -0.08528564 Ry
     correction to one-el term =     168.84201444 Ry

     iteration # 33     ecut=    50.00 Ry     beta= 0.70
     Davidson diagonalization with overlap
     ethr =  2.89E-12,  avg # of iterations =  2.0

     negative rho (up, down):  7.115E-05 0.000E+00

     add environment contribution to local potential
     Polarization accuracy = 4.4E-12, # of iterations =  35

     total cpu time spent up to now is    32393.8 secs

     total energy              =   -3442.33776071 Ry
     estimated scf accuracy    <          5.6E-09 Ry
     electrostatic embedding   =      -0.05435159 Ry
     cavitation energy         =       0.02000944 Ry
     PV energy                 =      -0.08528567 Ry
     correction to one-el term =     168.84176484 Ry

     iteration # 34     ecut=    50.00 Ry     beta= 0.70
     Davidson diagonalization with overlap
     ethr =  1.51E-12,  avg # of iterations =  5.0

     negative rho (up, down):  7.444E-05 0.000E+00

     the potential shift due to the Gaussian-smeared nuclei is    -1.3646 ev

     total cpu time spent up to now is    32869.3 secs

     End of self-consistent calculation

          k = 0.2500 0.2752 0.0000 ( 34780 PWs)   bands (ev):

   -75.1865 -75.1832 -75.1748 -75.1715 -75.0367 -75.0332 -74.9535 -74.9497
   -74.7909 -74.7871 -74.7788 -74.7750 -45.5704 -45.5675 -45.5658 -45.5628
   -45.5559 -45.5511 -45.2424 -45.2390 -45.1597 -45.1467 -45.0994 -45.0921
   -45.0890 -45.0866 -45.0803 -45.0772 -45.0048 -45.0001 -44.9925 -44.9880
   -44.9669 -44.8868 -44.8764 -44.8291 -44.8235 -44.8081 -44.8057 -44.7966
   -44.7591 -44.7461 -44.7287 -44.7166 -44.6387 -44.6266 -44.6261 -44.6140
   -25.5626 -25.5455 -25.5013 -25.4842 -21.8001 -21.7035 -21.5312 -21.3967
   -21.3678 -21.1876 -21.0588 -21.0038 -20.9172 -20.8931 -20.8120 -20.7966
   -20.7494 -20.6591 -20.5855 -20.5596 -20.5464 -20.4591 -20.4422 -20.3858
   -20.2274 -20.1926 -20.1256 -19.9018 -13.1126 -13.0957 -13.0600 -13.0430
   -10.6192 -10.4795 -10.3988 -10.3842  -9.8594  -9.8466  -9.7782  -9.4060
    -9.3925  -9.2708  -9.1354  -9.0993  -8.9623  -8.9351  -8.8445  -8.8296
    -8.7598  -8.7504  -8.7498  -8.5936  -8.5743  -8.5727  -8.5713  -8.3986
    -8.3469  -8.2941  -8.1366  -8.1206  -8.0769  -7.9282  -7.9109  -7.8385
    -7.7426  -7.5682  -7.5529  -7.5494  -7.4286  -7.2447  -7.2242  -7.2124
    -7.1840  -7.1692  -7.0101  -6.7903  -6.7317  -6.6542  -6.6379  -6.6303
    -6.6203  -6.5864  -6.4741  -6.3586  -6.1908  -6.1770  -6.0394  -6.0384
    -5.9657  -5.9259  -5.8591  -5.8451  -5.7430  -5.6341  -5.6132  -5.4614
    -5.3658  -5.2716  -5.2022  -4.9913  -4.9787  -4.9312  -4.9036  -4.8507
    -4.6818  -4.5978  -4.5723  -4.4606  -4.4466  -4.3826  -4.3641  -4.1970
    -3.1426  -2.8670  -2.8465  -2.8160  -2.6890  -2.6186  -2.6149  -2.5389
    -2.4558  -2.4396  -2.4334  -2.4273  -2.3274  -2.3171  -2.2686  -2.2501
    -2.2164  -2.1624  -2.1550  -2.1069  -2.1015  -2.0252  -1.8777  -1.8534
    -1.7462  -1.6779  -1.5659  -1.3558  -1.1133  -1.0593  -0.9772  -0.9279
    -0.8098  -0.7886  -0.6491  -0.6157  -0.4348  -0.3782  -0.0700   0.3330
     0.4029   0.4285   0.6663   0.7049   0.7153   0.8919   1.2545   1.6609
     1.6637   1.6933   1.8533   2.1084   2.2109   2.2261   2.2399   2.2449
     2.3142   2.3549   2.5779   2.5993   2.6598   2.7617   3.0666

     the Fermi energy is    -1.6363 ev

!    total energy              =   -3442.33776156 Ry
     estimated scf accuracy    <          7.3E-10 Ry
     smearing contrib. (-TS)   =       0.08445909 Ry
     internal energy E=F+TS    =   -3442.42222065 Ry

     The total energy is F=E-TS. E is the sum of the following terms:
     one-electron contribution =  -25012.54068380 Ry
     hartree contribution      =   12517.86642316 Ry
     xc contribution           =    -453.72829486 Ry
     ewald contribution        =    9603.67199813 Ry
     one-center paw contrib.   =    -266.41444532 Ry
     electrostatic embedding   =      -0.05435025 Ry
     cavitation energy         =       0.02000939 Ry
     PV energy                 =      -0.08528564 Ry
     correction to one-el term =     168.84240853 Ry

     WARNING: you are using the parabolic pbc correction;
              the potential shift above must be added to 
              band and Fermi energies.

     convergence has been achieved in  34 iterations

     negative rho (up, down):  7.444E-05 0.000E+00

     Forces acting on atoms (cartesian axes, Ry/au):

     atom    1 type  1   force =     0.04243020    0.00000000   -0.01830039
     atom    2 type  1   force =     0.04243276    0.00000000   -0.01830237
     atom    3 type  1   force =     0.00218348    0.00000000    0.13592344
     atom    4 type  1   force =     0.00218356    0.00000000    0.13592346
     atom    5 type  2   force =    -0.00046416    0.00000000    0.00980204
     atom    6 type  2   force =    -0.00046400    0.00000000    0.00980207
     atom    7 type  1   force =     0.00033245    0.09366964   -0.00549917
     atom    8 type  1   force =     0.00033445    0.09366968   -0.00549921
     atom    9 type  2   force =     0.00145926    0.00000000   -0.00344416
     atom   10 type  2   force =     0.00145887    0.00000000   -0.00344542
     atom   11 type  1   force =     0.00033245   -0.09366964   -0.00549917
     atom   12 type  1   force =     0.00033445   -0.09366968   -0.00549921
     atom   13 type  1   force =    -0.00008747    0.00000000    0.00070097
     atom   14 type  1   force =    -0.00008725    0.00000000    0.00070139
     atom   15 type  1   force =    -0.00185979    0.00000000    0.01273636
     atom   16 type  1   force =    -0.00185965    0.00000000    0.01273965
     atom   17 type  2   force =     0.00012476    0.00000000    0.00000000
     atom   18 type  2   force =     0.00012483    0.00000000    0.00000000
     atom   19 type  1   force =    -0.00001809   -0.07266958    0.00000000
     atom   20 type  1   force =    -0.00001807   -0.07266942    0.00000000
     atom   21 type  2   force =     0.00178198    0.00000000    0.00000000
     atom   22 type  2   force =     0.00178326    0.00000000    0.00000000
     atom   23 type  1   force =    -0.00001809    0.07266958    0.00000000
     atom   24 type  1   force =    -0.00001807    0.07266942    0.00000000
     atom   25 type  1   force =    -0.00185979    0.00000000   -0.01273636
     atom   26 type  1   force =    -0.00185965    0.00000000   -0.01273965
     atom   27 type  1   force =    -0.00008747    0.00000000   -0.00070097
     atom   28 type  1   force =    -0.00008725    0.00000000   -0.00070139
     atom   29 type  2   force =    -0.00046416    0.00000000   -0.00980204
     atom   30 type  2   force =    -0.00046400    0.00000000   -0.00980207
     atom   31 type  1   force =     0.00033245    0.09366964    0.00549917
     atom   32 type  1   force =     0.00033445    0.09366968    0.00549921
     atom   33 type  2   force =     0.00145926    0.00000000    0.00344416
     atom   34 type  2   force =     0.00145887    0.00000000    0.00344542
     atom   35 type  1   force =     0.00033245   -0.09366964    0.00549917
     atom   36 type  1   force =     0.00033445   -0.09366968    0.00549921
     atom   37 type  1   force =     0.00218348    0.00000000   -0.13592344
     atom   38 type  1   force =     0.00218356    0.00000000   -0.13592346
     atom   39 type  1   force =     0.04243020    0.00000000    0.01830039
     atom   40 type  1   force =     0.04243276    0.00000000    0.01830237
     atom   41 type  3   force =    -0.04200963    0.00000000    0.00654075
     atom   42 type  3   force =    -0.04200963    0.00000000   -0.00654075
     atom   43 type  3   force =    -0.04201290    0.00000000    0.00654135
     atom   44 type  3   force =    -0.04201290    0.00000000   -0.00654135
     atom   45 type  3   force =    -0.00162709    0.12755958   -0.06604968
     atom   46 type  3   force =    -0.00162709    0.12755958    0.06604968
     atom   47 type  3   force =    -0.00162709    0.12755951   -0.06604964
     atom   48 type  3   force =    -0.00162709    0.12755951    0.06604964
     atom   49 type  3   force =    -0.00162709   -0.12755958   -0.06604968
     atom   50 type  3   force =    -0.00162709   -0.12755958    0.06604968
     atom   51 type  3   force =    -0.00162709   -0.12755951   -0.06604964
     atom   52 type  3   force =    -0.00162709   -0.12755951    0.06604964
     The non-local contrib.  to forces
     atom    1 type  1   force =     1.67736947    0.00000000    0.28107535
     atom    2 type  1   force =     1.67736865    0.00000000    0.28107789
     atom    3 type  1   force =    -0.03840334    0.00000000   -1.59244966
     atom    4 type  1   force =    -0.03840291    0.00000000   -1.59244970
     atom    5 type  2   force =    -0.00097343    0.00000000    0.02593409
     atom    6 type  2   force =    -0.00097359    0.00000000    0.02593403
     atom    7 type  1   force =    -0.00016507   -0.10633148   -0.02894021
     atom    8 type  1   force =    -0.00016474   -0.10633090   -0.02894049
     atom    9 type  2   force =    -0.00417643    0.00000000    0.04505637
     atom   10 type  2   force =    -0.00417640    0.00000000    0.04505450
     atom   11 type  1   force =    -0.00016507    0.10633148   -0.02894021
     atom   12 type  1   force =    -0.00016474    0.10633090   -0.02894049
     atom   13 type  1   force =    -0.00141156    0.00000000   -0.18515635
     atom   14 type  1   force =    -0.00141192    0.00000000   -0.18515636
     atom   15 type  1   force =    -0.00248639    0.00000000   -0.07465137
     atom   16 type  1   force =    -0.00248583    0.00000000   -0.07464742
     atom   17 type  2   force =    -0.00073669    0.00000000    0.00000000
     atom   18 type  2   force =    -0.00073670    0.00000000    0.00000000
     atom   19 type  1   force =    -0.00077389    0.05772976    0.00000000
     atom   20 type  1   force =    -0.00077564    0.05773005    0.00000000
     atom   21 type  2   force =     0.00151294    0.00000000    0.00000000
     atom   22 type  2   force =     0.00151166    0.00000000    0.00000000
     atom   23 type  1   force =    -0.00077389   -0.05772976    0.00000000
     atom   24 type  1   force =    -0.00077564   -0.05773005    0.00000000
     atom   25 type  1   force =    -0.00248639    0.00000000    0.07465137
     atom   26 type  1   force =    -0.00248583    0.00000000    0.07464742
     atom   27 type  1   force =    -0.00141156    0.00000000    0.18515635
     atom   28 type  1   force =    -0.00141192    0.00000000    0.18515636
     atom   29 type  2   force =    -0.00097343    0.00000000   -0.02593409
     atom   30 type  2   force =    -0.00097359    0.00000000   -0.02593403
     atom   31 type  1   force =    -0.00016507   -0.10633148    0.02894021
     atom   32 type  1   force =    -0.00016474   -0.10633090    0.02894049
     atom   33 type  2   force =    -0.00417643    0.00000000   -0.04505637
     atom   34 type  2   force =    -0.00417640    0.00000000   -0.04505450
     atom   35 type  1   force =    -0.00016507    0.10633148    0.02894021
     atom   36 type  1   force =    -0.00016474    0.10633090    0.02894049
     atom   37 type  1   force =    -0.03840334    0.00000000    1.59244966
     atom   38 type  1   force =    -0.03840291    0.00000000    1.59244970
     atom   39 type  1   force =     1.67736947    0.00000000   -0.28107535
     atom   40 type  1   force =     1.67736865    0.00000000   -0.28107789
     atom   41 type  3   force =    -0.09370558    0.00000000    0.01902618
     atom   42 type  3   force =    -0.09370558    0.00000000   -0.01902618
     atom   43 type  3   force =    -0.09370475    0.00000000    0.01902595
     atom   44 type  3   force =    -0.09370475    0.00000000   -0.01902595
     atom   45 type  3   force =     0.00158137   -0.10919268    0.07995316
     atom   46 type  3   force =     0.00158137   -0.10919268   -0.07995316
     atom   47 type  3   force =     0.00158137   -0.10919262    0.07995312
     atom   48 type  3   force =     0.00158137   -0.10919262   -0.07995312
     atom   49 type  3   force =     0.00158137    0.10919268    0.07995316
     atom   50 type  3   force =     0.00158137    0.10919268   -0.07995316
     atom   51 type  3   force =     0.00158137    0.10919262    0.07995312
     atom   52 type  3   force =     0.00158137    0.10919262   -0.07995312
     The ionic contribution  to forces
     atom    1 type  1   force =    -2.66256112    0.00000011  -93.41885314
     atom    2 type  1   force =    -2.66254565    0.00000011  -93.41886836
     atom    3 type  1   force =     0.07218422   -0.00000018  -87.49985436
     atom    4 type  1   force =     0.07218364   -0.00000018  -87.49985521
     atom    5 type  2   force =    -0.03355941   -0.00000229 -166.77147834
     atom    6 type  2   force =    -0.03354929   -0.00000229 -166.77147788
     atom    7 type  1   force =     0.00504342    1.02310055  -64.66547150
     atom    8 type  1   force =     0.00504945    1.02310164  -64.66547162
     atom    9 type  2   force =    -0.13036785    0.00000285 -168.77977087
     atom   10 type  2   force =    -0.13036964    0.00000285 -168.77992491
     atom   11 type  1   force =     0.00504342   -1.02310016  -64.66546941
     atom   12 type  1   force =     0.00504945   -1.02310125  -64.66546954
     atom   13 type  1   force =     0.00328174   -0.00000163  -38.41749277
     atom   14 type  1   force =     0.00328166   -0.00000163  -38.41749624
     atom   15 type  1   force =    -0.01498347    0.00000902  -25.60333152
     atom   16 type  1   force =    -0.01498288    0.00000902  -25.60338526
     atom   17 type  2   force =    -0.02386109    0.00001343   -0.00048017
     atom   18 type  2   force =    -0.02385916    0.00001343   -0.00048017
     atom   19 type  1   force =     0.01225202   -0.83480137   -0.00008843
     atom   20 type  1   force =     0.01228411   -0.83479953   -0.00008843
     atom   21 type  2   force =     0.02512334    0.00012259   -0.00026410
     atom   22 type  2   force =     0.02514121    0.00012259   -0.00026410
     atom   23 type  1   force =     0.01225205    0.83464881   -0.00008843
     atom   24 type  1   force =     0.01228414    0.83464697   -0.00008843
     atom   25 type  1   force =    -0.01498412    0.00000902   25.60313827
     atom   26 type  1   force =    -0.01498353    0.00000902   25.60319201
     atom   27 type  1   force =     0.00328186   -0.00000163   38.41777483
     atom   28 type  1   force =     0.00328179   -0.00000163   38.41777829
     atom   29 type  2   force =    -0.03355866   -0.00000229  166.77180601
     atom   30 type  2   force =    -0.03354853   -0.00000229  166.77180555
     atom   31 type  1   force =     0.00504485    1.02307287   64.66554552
     atom   32 type  1   force =     0.00505088    1.02307396   64.66554565
     atom   33 type  2   force =    -0.13037475    0.00000285  168.77992442
     atom   34 type  2   force =    -0.13037655    0.00000285  168.78007847
     atom   35 type  1   force =     0.00504485   -1.02307247   64.66554344
     atom   36 type  1   force =     0.00505088   -1.02307357   64.66554357
     atom   37 type  1   force =     0.07219048   -0.00000018   87.49980542
     atom   38 type  1   force =     0.07218989   -0.00000018   87.49980627
     atom   39 type  1   force =    -2.66260274    0.00000011   93.41899655
     atom   40 type  1   force =    -2.66258726    0.00000011   93.41901177
     atom   41 type  3   force =     2.84539210    0.00000002  -15.72274903
     atom   42 type  3   force =     2.84543805    0.00000002   15.72273946
     atom   43 type  3   force =     2.84537838    0.00000002  -15.72274409
     atom   44 type  3   force =     2.84542433    0.00000002   15.72273452
     atom   45 type  3   force =    -0.05119420    2.76378694  -17.16259975
     atom   46 type  3   force =    -0.05119782    2.76406042   17.16265883
     atom   47 type  3   force =    -0.05119381    2.76378589  -17.16259989
     atom   48 type  3   force =    -0.05119743    2.76405936   17.16265896
     atom   49 type  3   force =    -0.05119420   -2.76378697  -17.16259973
     atom   50 type  3   force =    -0.05119782   -2.76406044   17.16265880
     atom   51 type  3   force =    -0.05119381   -2.76378591  -17.16259986
     atom   52 type  3   force =    -0.05119743   -2.76405939   17.16265894
     The local contribution  to forces
     atom    1 type  1   force =     1.03384978   -0.00000000   93.03147627
     atom    2 type  1   force =     1.03383679   -0.00000000   93.03150111
     atom    3 type  1   force =    -0.03232459    0.00000000   89.28481657
     atom    4 type  1   force =    -0.03232634   -0.00000000   89.28482046
     atom    5 type  2   force =     0.03426897   -0.00000000  166.78311780
     atom    6 type  2   force =     0.03423644   -0.00000000  166.78311743
     atom    7 type  1   force =    -0.00430366   -0.81066378   64.68221328
     atom    8 type  1   force =    -0.00433763   -0.81066359   64.68221350
     atom    9 type  2   force =     0.13531115   -0.00000000  168.69625144
     atom   10 type  2   force =     0.13530901   -0.00000000  168.69641085
     atom   11 type  1   force =    -0.00430366    0.81066378   64.68221328
     atom   12 type  1   force =    -0.00433763    0.81066359   64.68221350
     atom   13 type  1   force =    -0.00198808   -0.00000000   38.60328449
     atom   14 type  1   force =    -0.00199052   -0.00000000   38.60328006
     atom   15 type  1   force =     0.01556682    0.00000000   25.68771493
     atom   16 type  1   force =     0.01556494   -0.00000000   25.68775407
     atom   17 type  2   force =     0.02472126    0.00000000   -0.00581284
     atom   18 type  2   force =     0.02471654    0.00000000   -0.00581284
     atom   19 type  1   force =    -0.01150220    0.70420128   -0.00246410
     atom   20 type  1   force =    -0.01153033    0.70419946   -0.00246410
     atom   21 type  2   force =    -0.02483526   -0.00000000   -0.00606922
     atom   22 type  2   force =    -0.02488557    0.00000000   -0.00606922
     atom   23 type  1   force =    -0.01150222   -0.70454020   -0.00246409
     atom   24 type  1   force =    -0.01153035   -0.70453838   -0.00246409
     atom   25 type  1   force =     0.01556603    0.00000000  -25.68946272
     atom   26 type  1   force =     0.01556416   -0.00000000  -25.68950186
     atom   27 type  1   force =    -0.00198779   -0.00000000  -38.60506168
     atom   28 type  1   force =    -0.00199024   -0.00000000  -38.60505725
     atom   29 type  2   force =     0.03426947   -0.00000000 -166.78916177
     atom   30 type  2   force =     0.03423694    0.00000000 -166.78916140
     atom   31 type  1   force =    -0.00430543   -0.81063072  -64.68466434
     atom   32 type  1   force =    -0.00433940   -0.81063053  -64.68466455
     atom   33 type  2   force =     0.13532050   -0.00000000 -168.70205967
     atom   34 type  2   force =     0.13531836    0.00000000 -168.70221908
     atom   35 type  1   force =    -0.00430543    0.81063072  -64.68466434
     atom   36 type  1   force =    -0.00433940    0.81063053  -64.68466455
     atom   37 type  1   force =    -0.03232597    0.00000000  -89.28850168
     atom   38 type  1   force =    -0.03232772    0.00000000  -89.28850557
     atom   39 type  1   force =     1.03386066    0.00000000  -93.03307318
     atom   40 type  1   force =     1.03384767   -0.00000000  -93.03309802
     atom   41 type  3   force =    -2.79298820   -0.00000000   15.69545571
     atom   42 type  3   force =    -2.79298820   -0.00000000  -15.69545571
     atom   43 type  3   force =    -2.79298025   -0.00000000   15.69545257
     atom   44 type  3   force =    -2.79298025   -0.00000000  -15.69545257
     atom   45 type  3   force =     0.04760886   -2.51355022   17.03381097
     atom   46 type  3   force =     0.04760886   -2.51355022  -17.03381097
     atom   47 type  3   force =     0.04760832   -2.51354886   17.03381177
     atom   48 type  3   force =     0.04760832   -2.51354886  -17.03381177
     atom   49 type  3   force =     0.04760886    2.51355022   17.03381097
     atom   50 type  3   force =     0.04760886    2.51355022  -17.03381097
     atom   51 type  3   force =     0.04760832    2.51354886   17.03381177
     atom   52 type  3   force =     0.04760832    2.51354886  -17.03381177
     The core correction contribution to forces
     atom    1 type  1   force =    -0.01710703    0.00000000   -0.00297717
     atom    2 type  1   force =    -0.01710708   -0.00000000   -0.00297720
     atom    3 type  1   force =     0.00032838   -0.00000000    0.01294724
     atom    4 type  1   force =     0.00032838   -0.00000000    0.01294724
     atom    5 type  2   force =     0.00000000    0.00000000    0.00000000
     atom    6 type  2   force =     0.00000000    0.00000000    0.00000000
     atom    7 type  1   force =     0.00001312   -0.00029909    0.00054413
     atom    8 type  1   force =     0.00001315   -0.00029910    0.00054413
     atom    9 type  2   force =     0.00000000    0.00000000    0.00000000
     atom   10 type  2   force =     0.00000000    0.00000000    0.00000000
     atom   11 type  1   force =     0.00001312    0.00029909    0.00054413
     atom   12 type  1   force =     0.00001315    0.00029910    0.00054413
     atom   13 type  1   force =     0.00002021    0.00000000    0.00273276
     atom   14 type  1   force =     0.00002022   -0.00000000    0.00273276
     atom   15 type  1   force =     0.00003754   -0.00000000    0.00054229
     atom   16 type  1   force =     0.00003753    0.00000000    0.00054226
     atom   17 type  2   force =     0.00000000    0.00000000    0.00000000
     atom   18 type  2   force =     0.00000000    0.00000000    0.00000000
     atom   19 type  1   force =     0.00000463    0.00078499   -0.00000215
     atom   20 type  1   force =     0.00000463    0.00078498   -0.00000215
     atom   21 type  2   force =     0.00000000    0.00000000    0.00000000
     atom   22 type  2   force =     0.00000000    0.00000000    0.00000000
     atom   23 type  1   force =     0.00000463   -0.00078546   -0.00000215
     atom   24 type  1   force =     0.00000463   -0.00078545   -0.00000215
     atom   25 type  1   force =     0.00003753   -0.00000000   -0.00054460
     atom   26 type  1   force =     0.00003752    0.00000000   -0.00054457
     atom   27 type  1   force =     0.00002022    0.00000000   -0.00273488
     atom   28 type  1   force =     0.00002023   -0.00000000   -0.00273488
     atom   29 type  2   force =     0.00000000    0.00000000    0.00000000
     atom   30 type  2   force =     0.00000000    0.00000000    0.00000000
     atom   31 type  1   force =     0.00001312   -0.00029885   -0.00054638
     atom   32 type  1   force =     0.00001315   -0.00029886   -0.00054638
     atom   33 type  2   force =     0.00000000    0.00000000    0.00000000
     atom   34 type  2   force =     0.00000000    0.00000000    0.00000000
     atom   35 type  1   force =     0.00001312    0.00029885   -0.00054638
     atom   36 type  1   force =     0.00001315    0.00029886   -0.00054638
     atom   37 type  1   force =     0.00032842    0.00000000   -0.01295137
     atom   38 type  1   force =     0.00032841   -0.00000000   -0.01295137
     atom   39 type  1   force =    -0.01710775   -0.00000000    0.00297515
     atom   40 type  1   force =    -0.01710779    0.00000000    0.00297519
     atom   41 type  3   force =     0.00000000    0.00000000    0.00000000
     atom   42 type  3   force =     0.00000000    0.00000000    0.00000000
     atom   43 type  3   force =     0.00000000    0.00000000    0.00000000
     atom   44 type  3   force =     0.00000000    0.00000000    0.00000000
     atom   45 type  3   force =     0.00000000    0.00000000    0.00000000
     atom   46 type  3   force =     0.00000000    0.00000000    0.00000000
     atom   47 type  3   force =     0.00000000    0.00000000    0.00000000
     atom   48 type  3   force =     0.00000000    0.00000000    0.00000000
     atom   49 type  3   force =     0.00000000    0.00000000    0.00000000
     atom   50 type  3   force =     0.00000000    0.00000000    0.00000000
     atom   51 type  3   force =     0.00000000    0.00000000    0.00000000
     atom   52 type  3   force =     0.00000000    0.00000000    0.00000000
     The Hubbard contrib.    to forces
     atom    1 type  1   force =     0.00000000    0.00000000    0.00000000
     atom    2 type  1   force =     0.00000000    0.00000000    0.00000000
     atom    3 type  1   force =     0.00000000    0.00000000    0.00000000
     atom    4 type  1   force =     0.00000000    0.00000000    0.00000000
     atom    5 type  2   force =     0.00000000    0.00000000    0.00000000
     atom    6 type  2   force =     0.00000000    0.00000000    0.00000000
     atom    7 type  1   force =     0.00000000    0.00000000    0.00000000
     atom    8 type  1   force =     0.00000000    0.00000000    0.00000000
     atom    9 type  2   force =     0.00000000    0.00000000    0.00000000
     atom   10 type  2   force =     0.00000000    0.00000000    0.00000000
     atom   11 type  1   force =     0.00000000    0.00000000    0.00000000
     atom   12 type  1   force =     0.00000000    0.00000000    0.00000000
     atom   13 type  1   force =     0.00000000    0.00000000    0.00000000
     atom   14 type  1   force =     0.00000000    0.00000000    0.00000000
     atom   15 type  1   force =     0.00000000    0.00000000    0.00000000
     atom   16 type  1   force =     0.00000000    0.00000000    0.00000000
     atom   17 type  2   force =     0.00000000    0.00000000    0.00000000
     atom   18 type  2   force =     0.00000000    0.00000000    0.00000000
     atom   19 type  1   force =     0.00000000    0.00000000    0.00000000
     atom   20 type  1   force =     0.00000000    0.00000000    0.00000000
     atom   21 type  2   force =     0.00000000    0.00000000    0.00000000
     atom   22 type  2   force =     0.00000000    0.00000000    0.00000000
     atom   23 type  1   force =     0.00000000    0.00000000    0.00000000
     atom   24 type  1   force =     0.00000000    0.00000000    0.00000000
     atom   25 type  1   force =     0.00000000    0.00000000    0.00000000
     atom   26 type  1   force =     0.00000000    0.00000000    0.00000000
     atom   27 type  1   force =     0.00000000    0.00000000    0.00000000
     atom   28 type  1   force =     0.00000000    0.00000000    0.00000000
     atom   29 type  2   force =     0.00000000    0.00000000    0.00000000
     atom   30 type  2   force =     0.00000000    0.00000000    0.00000000
     atom   31 type  1   force =     0.00000000    0.00000000    0.00000000
     atom   32 type  1   force =     0.00000000    0.00000000    0.00000000
     atom   33 type  2   force =     0.00000000    0.00000000    0.00000000
     atom   34 type  2   force =     0.00000000    0.00000000    0.00000000
     atom   35 type  1   force =     0.00000000    0.00000000    0.00000000
     atom   36 type  1   force =     0.00000000    0.00000000    0.00000000
     atom   37 type  1   force =     0.00000000    0.00000000    0.00000000
     atom   38 type  1   force =     0.00000000    0.00000000    0.00000000
     atom   39 type  1   force =     0.00000000    0.00000000    0.00000000
     atom   40 type  1   force =     0.00000000    0.00000000    0.00000000
     atom   41 type  3   force =     0.00000000    0.00000000    0.00000000
     atom   42 type  3   force =     0.00000000    0.00000000    0.00000000
     atom   43 type  3   force =     0.00000000    0.00000000    0.00000000
     atom   44 type  3   force =     0.00000000    0.00000000    0.00000000
     atom   45 type  3   force =     0.00000000    0.00000000    0.00000000
     atom   46 type  3   force =     0.00000000    0.00000000    0.00000000
     atom   47 type  3   force =     0.00000000    0.00000000    0.00000000
     atom   48 type  3   force =     0.00000000    0.00000000    0.00000000
     atom   49 type  3   force =     0.00000000    0.00000000    0.00000000
     atom   50 type  3   force =     0.00000000    0.00000000    0.00000000
     atom   51 type  3   force =     0.00000000    0.00000000    0.00000000
     atom   52 type  3   force =     0.00000000    0.00000000    0.00000000
     The SCF correction term to forces
     atom    1 type  1   force =     0.00000139   -0.00000002    0.00000897
     atom    2 type  1   force =     0.00000213   -0.00000002   -0.00000523
     atom    3 type  1   force =    -0.00000098    0.00000002    0.00000312
     atom    4 type  1   force =     0.00000093    0.00000002   -0.00000006
     atom    5 type  2   force =    -0.00001127    0.00000015   -0.00002130
     atom    6 type  2   force =     0.00001136    0.00000015   -0.00002124
     atom    7 type  1   force =    -0.00001501   -0.00000208   -0.00000941
     atom    8 type  1   force =     0.00001455   -0.00000390   -0.00000923
     atom    9 type  2   force =    -0.00000110   -0.00000014   -0.00002655
     atom   10 type  2   force =     0.00000233   -0.00000014   -0.00003139
     atom   11 type  1   force =    -0.00001501    0.00000205   -0.00000944
     atom   12 type  1   force =     0.00001455    0.00000387   -0.00000926
     atom   13 type  1   force =    -0.00000148    0.00000008   -0.00001088
     atom   14 type  1   force =     0.00000160    0.00000008   -0.00000256
     atom   15 type  1   force =    -0.00000040   -0.00000009   -0.00000726
     atom   16 type  1   force =     0.00000048   -0.00000009    0.00000670
     atom   17 type  2   force =    -0.00000145    0.00000030    0.00002439
     atom   18 type  2   force =     0.00000139    0.00000030    0.00002439
     atom   19 type  1   force =     0.00000112   -0.00000147    0.00000893
     atom   20 type  1   force =    -0.00000109   -0.00000162    0.00000893
     atom   21 type  2   force =    -0.00001737   -0.00000031    0.00002414
     atom   22 type  2   force =     0.00001763   -0.00000031    0.00002414
     atom   23 type  1   force =     0.00000112    0.00000156    0.00000893
     atom   24 type  1   force =    -0.00000109    0.00000170    0.00000893
     atom   25 type  1   force =    -0.00000040   -0.00000009    0.00002085
     atom   26 type  1   force =     0.00000048   -0.00000009    0.00000690
     atom   27 type  1   force =    -0.00000148    0.00000008    0.00001973
     atom   28 type  1   force =     0.00000160    0.00000008    0.00001141
     atom   29 type  2   force =    -0.00001127    0.00000015    0.00002347
     atom   30 type  2   force =     0.00001136    0.00000015    0.00002342
     atom   31 type  1   force =    -0.00001501   -0.00000245    0.00000977
     atom   32 type  1   force =     0.00001456   -0.00000427    0.00000959
     atom   33 type  2   force =    -0.00000111   -0.00000014    0.00002731
     atom   34 type  2   force =     0.00000233   -0.00000014    0.00003217
     atom   35 type  1   force =    -0.00001501    0.00000241    0.00000981
     atom   36 type  1   force =     0.00001456    0.00000423    0.00000963
     atom   37 type  1   force =    -0.00000098    0.00000002   -0.00000701
     atom   38 type  1   force =     0.00000093    0.00000002   -0.00000384
     atom   39 type  1   force =     0.00000140   -0.00000002   -0.00001304
     atom   40 type  1   force =     0.00000214   -0.00000002    0.00000116
     atom   41 type  3   force =    -0.00000062   -0.00000000    0.00000029
     atom   42 type  3   force =    -0.00000063   -0.00000000   -0.00000099
     atom   43 type  3   force =     0.00000101   -0.00000000   -0.00000068
     atom   44 type  3   force =     0.00000100   -0.00000000   -0.00000002
     atom   45 type  3   force =    -0.00000005   -0.00000028    0.00000078
     atom   46 type  3   force =    -0.00000005   -0.00000031   -0.00000150
     atom   47 type  3   force =     0.00000009   -0.00000073    0.00000014
     atom   48 type  3   force =     0.00000009   -0.00000077   -0.00000086
     atom   49 type  3   force =    -0.00000005    0.00000029    0.00000078
     atom   50 type  3   force =    -0.00000005    0.00000032   -0.00000150
     atom   51 type  3   force =     0.00000009    0.00000074    0.00000014
     atom   52 type  3   force =     0.00000009    0.00000077   -0.00000085

     Total force =     0.589454     Total SCF correction =     0.000116

     BFGS Geometry Optimization
     Energy error            =      0.0E+00 Ry
     Gradient error          =      1.4E-01 Ry/Bohr

     number of scf cycles    =   1
     number of bfgs steps    =   0

     energy             new  =   -3442.3377615603 Ry

     new trust radius        =       0.1436546326 bohr
     new conv_thr            =       0.0000000010 Ry


ATOMIC_POSITIONS (crystal)
O             0.0048757377        0.5000000000        0.2628735393
O             0.5048758352        0.5000000000        0.2628734372
O            -0.0030548548        0.0000000000        0.2899076107
O             0.4969451564        0.0000000000        0.2899076085
Ru            0.2471142441        0.0000000000        0.3600299003
Ru            0.7471142454        0.0000000000        0.3600299014
O             0.2476077833        0.3116201104        0.3547922462
O             0.7476079928        0.3116200945        0.3547922473
Ru           -0.0027960261        0.5000000000        0.3563379025
Ru            0.4972039734        0.5000000000        0.3563377754
O             0.2476077833        0.6883798896        0.3547922462
O             0.7476079928        0.6883799055        0.3547922473
O            -0.0028212135        0.0000000000        0.4124825125
O             0.4971788024        0.0000000000        0.4124825186
O            -0.0031827030        0.5000000000        0.4441505115
O             0.4968172968        0.5000000000        0.4441504131
Ru           -0.0030198138        0.0000000000        0.5000010000
Ru            0.4969801759        0.0000000000        0.5000010000
O             0.2469030678        0.1883559156        0.5000010000
O             0.7469029574        0.1883559127        0.5000010000
Ru            0.2469436072        0.5000000000        0.5000010000
Ru            0.7469432441        0.5000000000        0.5000010000
O             0.2469030678        0.8116450844        0.5000010000
O             0.7469029574        0.8116450873        0.5000010000
O            -0.0031827030        0.5000000000        0.5558504885
O             0.4968172968        0.5000000000        0.5558505869
O            -0.0028212135        0.0000000000        0.5875184875
O             0.4971788024        0.0000000000        0.5875184814
Ru            0.2471142441        0.0000000000        0.6399710997
Ru            0.7471142454        0.0000000000        0.6399710986
O             0.2476077833        0.3116201104        0.6452087538
O             0.7476079928        0.3116200945        0.6452087527
Ru           -0.0027960261        0.5000000000        0.6436630975
Ru            0.4972039734        0.5000000000        0.6436632246
O             0.2476077833        0.6883798896        0.6452087538
O             0.7476079928        0.6883799055        0.6452087527
O            -0.0030548548        0.0000000000        0.7100943893
O             0.4969451564        0.0000000000        0.7100943915
O             0.0048757377        0.5000000000        0.7371274607
O             0.5048758352        0.5000000000        0.7371275628
H             0.1482941310        0.5000000000        0.2543682829
H             0.1482941310        0.5000000000        0.7456317171
H             0.6482941167        0.5000000000        0.2543682433
H             0.6482941167        0.5000000000        0.7456317567
H            -0.0049374888        0.1347999698        0.2599516769
H            -0.0049374888        0.1347999698        0.7400483231
H             0.4950625260        0.1347999603        0.2599516704
H             0.4950625260        0.1347999603        0.7400483296
H            -0.0049374888        0.8652000302        0.2599516769
H            -0.0049374888        0.8652000302        0.7400483231
H             0.4950625260        0.8652000397        0.2599516704
H             0.4950625260        0.8652000397        0.7400483296



     Writing config-only to output data dir /storage/home/mgm6007/ixd4/Maria/StrainJin_Files/RuO2-110-0-012345/RuO2-110-0-012345.save/
     NEW-OLD atomic charge density approx. for the potential

     Check: negative core charge=   -0.000001

     negative rho (up, down):  6.530E-05 0.000E+00

     add environment contribution to local potential
     Polarization accuracy = 4.1E-12, # of iterations =  35

     total cpu time spent up to now is    33331.1 secs

     per-process dynamical memory:   204.9 Mb

     Self-consistent Calculation

     iteration #  1     ecut=    50.00 Ry     beta= 0.70
     Davidson diagonalization with overlap
     ethr =  1.00E-06,  avg # of iterations = 17.0

     negative rho (up, down):  4.298E-05 0.000E+00

     total cpu time spent up to now is    34111.7 secs

     total energy              =   -3442.41177075 Ry
     estimated scf accuracy    <       0.12375956 Ry
     electrostatic embedding   =      -0.05255367 Ry
     cavitation energy         =       0.01997665 Ry
     PV energy                 =      -0.08551932 Ry
     correction to one-el term =     168.82695569 Ry

     iteration #  2     ecut=    50.00 Ry     beta= 0.70
     Davidson diagonalization with overlap
     ethr =  3.33E-05,  avg # of iterations =  2.0

     negative rho (up, down):  3.598E-05 0.000E+00

     add environment contribution to local potential
     Polarization accuracy = 5.1E-12, # of iterations =  35

     total cpu time spent up to now is    34920.8 secs

     total energy              =   -3442.42084608 Ry
     estimated scf accuracy    <       0.07294962 Ry
     electrostatic embedding   =      -0.05176870 Ry
     cavitation energy         =       0.02002789 Ry
     PV energy                 =      -0.08549959 Ry
     correction to one-el term =     168.82454415 Ry

     iteration #  3     ecut=    50.00 Ry     beta= 0.70
     Davidson diagonalization with overlap
     ethr =  1.96E-05,  avg # of iterations =  1.0

     negative rho (up, down):  1.241E-05 0.000E+00

     add environment contribution to local potential
     Polarization accuracy = 5.0E-12, # of iterations =  36

     total cpu time spent up to now is    35605.2 secs

     total energy              =   -3442.42367170 Ry
     estimated scf accuracy    <       0.01633316 Ry
     electrostatic embedding   =      -0.05027956 Ry
     cavitation energy         =       0.02001182 Ry
     PV energy                 =      -0.08552967 Ry
     correction to one-el term =     169.47937821 Ry

     iteration #  4     ecut=    50.00 Ry     beta= 0.70
     Davidson diagonalization with overlap
     ethr =  4.39E-06,  avg # of iterations =  2.0

     negative rho (up, down):  3.722E-06 0.000E+00

     add environment contribution to local potential
     Polarization accuracy = 4.4E-12, # of iterations =  35

     total cpu time spent up to now is    36382.7 secs

     total energy              =   -3442.42416496 Ry
     estimated scf accuracy    <       0.00337448 Ry
     electrostatic embedding   =      -0.05010273 Ry
     cavitation energy         =       0.01999119 Ry
     PV energy                 =      -0.08557596 Ry
     correction to one-el term =     169.47863566 Ry

     iteration #  5     ecut=    50.00 Ry     beta= 0.70
     Davidson diagonalization with overlap
     ethr =  9.07E-07,  avg # of iterations =  6.0

     negative rho (up, down):  1.432E-06 0.000E+00

     add environment contribution to local potential
     Polarization accuracy = 3.8E-12, # of iterations =  35

     total cpu time spent up to now is    37391.1 secs

     total energy              =   -3442.42439191 Ry
     estimated scf accuracy    <       0.00199707 Ry
     electrostatic embedding   =      -0.05015319 Ry
     cavitation energy         =       0.01997413 Ry
     PV energy                 =      -0.08560761 Ry
     correction to one-el term =     169.39083663 Ry

     iteration #  6     ecut=    50.00 Ry     beta= 0.70
     Davidson diagonalization with overlap
     ethr =  5.37E-07,  avg # of iterations =  1.0

     negative rho (up, down):  6.827E-07 0.000E+00

     add environment contribution to local potential
     Polarization accuracy = 3.3E-12, # of iterations =  35

     total cpu time spent up to now is    37989.3 secs

     total energy              =   -3442.42438925 Ry
     estimated scf accuracy    <       0.00054962 Ry
     electrostatic embedding   =      -0.05030514 Ry
     cavitation energy         =       0.01996321 Ry
     PV energy                 =      -0.08562224 Ry
     correction to one-el term =     169.26037613 Ry

     iteration #  7     ecut=    50.00 Ry     beta= 0.70
     Davidson diagonalization with overlap
     ethr =  1.48E-07,  avg # of iterations =  1.0

     negative rho (up, down):  3.895E-07 0.000E+00

     add environment contribution to local potential
     Polarization accuracy = 1.6E-12, # of iterations =  34

     total cpu time spent up to now is    38881.4 secs

     total energy              =   -3442.42436825 Ry
     estimated scf accuracy    <       0.00061736 Ry
     electrostatic embedding   =      -0.05052537 Ry
     cavitation energy         =       0.01995676 Ry
     PV energy                 =      -0.08562666 Ry
     correction to one-el term =     169.10148108 Ry

     iteration #  8     ecut=    50.00 Ry     beta= 0.70
     Davidson diagonalization with overlap
     ethr =  1.48E-07,  avg # of iterations =  2.0

     negative rho (up, down):  2.037E-07 0.000E+00

     add environment contribution to local potential
     Polarization accuracy = 1.7E-12, # of iterations =  35

     total cpu time spent up to now is    39499.2 secs

     total energy              =   -3442.42436754 Ry
     estimated scf accuracy    <       0.00012654 Ry
     electrostatic embedding   =      -0.05096292 Ry
     cavitation energy         =       0.01995322 Ry
     PV energy                 =      -0.08562153 Ry
     correction to one-el term =     168.79622343 Ry

     iteration #  9     ecut=    50.00 Ry     beta= 0.70
     Davidson diagonalization with overlap
     ethr =  3.40E-08,  avg # of iterations =  2.0

     negative rho (up, down):  2.544E-07 0.000E+00

     add environment contribution to local potential
     Polarization accuracy = 3.7E-12, # of iterations =  35

     total cpu time spent up to now is    40080.5 secs

     total energy              =   -3442.42437435 Ry
     estimated scf accuracy    <       0.00002499 Ry
     electrostatic embedding   =      -0.05128388 Ry
     cavitation energy         =       0.01996132 Ry
     PV energy                 =      -0.08560107 Ry
     correction to one-el term =     168.55972898 Ry

     iteration # 10     ecut=    50.00 Ry     beta= 0.70
     Davidson diagonalization with overlap
     ethr =  6.72E-09,  avg # of iterations =  2.0

     negative rho (up, down):  6.827E-07 0.000E+00

     add environment contribution to local potential
     Polarization accuracy = 4.0E-12, # of iterations =  35

     total cpu time spent up to now is    40737.8 secs

     total energy              =   -3442.42437821 Ry
     estimated scf accuracy    <       0.00001523 Ry
     electrostatic embedding   =      -0.05130165 Ry
     cavitation energy         =       0.01996650 Ry
     PV energy                 =      -0.08559130 Ry
     correction to one-el term =     168.52909164 Ry

     iteration # 11     ecut=    50.00 Ry     beta= 0.70
     Davidson diagonalization with overlap
     ethr =  4.09E-09,  avg # of iterations =  2.0

     negative rho (up, down):  2.254E-06 0.000E+00

     add environment contribution to local potential
     Polarization accuracy = 4.2E-12, # of iterations =  35

     total cpu time spent up to now is    41373.7 secs

     total energy              =   -3442.42438229 Ry
     estimated scf accuracy    <       0.00000228 Ry
     electrostatic embedding   =      -0.05125366 Ry
     cavitation energy         =       0.01997279 Ry
     PV energy                 =      -0.08557927 Ry
     correction to one-el term =     168.52844651 Ry

     iteration # 12     ecut=    50.00 Ry     beta= 0.70
     Davidson diagonalization with overlap
     ethr =  6.13E-10,  avg # of iterations =  4.0

     negative rho (up, down):  1.119E-05 0.000E+00

     add environment contribution to local potential
     Polarization accuracy = 3.0E-12, # of iterations =  35

     total cpu time spent up to now is    42020.6 secs

     total energy              =   -3442.42438451 Ry
     estimated scf accuracy    <       0.00000100 Ry
     electrostatic embedding   =      -0.05119546 Ry
     cavitation energy         =       0.01997393 Ry
     PV energy                 =      -0.08557451 Ry
     correction to one-el term =     168.54138961 Ry

     iteration # 13     ecut=    50.00 Ry     beta= 0.70
     Davidson diagonalization with overlap
     ethr =  2.68E-10,  avg # of iterations =  3.0

     negative rho (up, down):  4.392E-05 0.000E+00

     add environment contribution to local potential
     Polarization accuracy = 5.1E-12, # of iterations =  34

     total cpu time spent up to now is    42617.6 secs

     total energy              =   -3442.42438566 Ry
     estimated scf accuracy    <       0.00000037 Ry
     electrostatic embedding   =      -0.05110525 Ry
     cavitation energy         =       0.01997212 Ry
     PV energy                 =      -0.08557364 Ry
     correction to one-el term =     168.57525983 Ry

     iteration # 14     ecut=    50.00 Ry     beta= 0.70
     Davidson diagonalization with overlap
     ethr =  9.85E-11,  avg # of iterations =  2.0

     negative rho (up, down):  5.367E-05 0.000E+00

     add environment contribution to local potential
     Polarization accuracy = 2.5E-12, # of iterations =  35

     total cpu time spent up to now is    43259.4 secs

     total energy              =   -3442.42438597 Ry
     estimated scf accuracy    <       0.00000011 Ry
[...]
     atom   13 type  1   force =     0.01167066   -0.00000000   38.61303494
     atom   14 type  1   force =     0.01166743    0.00000000   38.61303234
     atom   15 type  1   force =    -0.00593381   -0.00000000   25.79129608
     atom   16 type  1   force =    -0.00592368    0.00000000   25.79129345
     atom   17 type  2   force =     0.06021973    0.00000000   -0.00583895
     atom   18 type  2   force =     0.06022553    0.00000000   -0.00583895
     atom   19 type  1   force =     0.01281546   -0.78153177   -0.00246180
     atom   20 type  1   force =     0.01281873   -0.78152989   -0.00246180
     atom   21 type  2   force =    -0.02066553   -0.00000000   -0.00604541
     atom   22 type  2   force =    -0.02064418   -0.00000000   -0.00604541
     atom   23 type  1   force =     0.01281439    0.78118398   -0.00246180
     atom   24 type  1   force =     0.01281766    0.78118210   -0.00246180
     atom   25 type  1   force =    -0.00593135    0.00000000  -25.79306233
     atom   26 type  1   force =    -0.00592123    0.00000000  -25.79305970
     atom   27 type  1   force =     0.01167161    0.00000000  -38.61480972
     atom   28 type  1   force =     0.01166837   -0.00000000  -38.61480712
     atom   29 type  2   force =     0.14982428    0.00000000 -166.10030708
     atom   30 type  2   force =     0.14981618   -0.00000000 -166.10036600
     atom   31 type  1   force =    -0.08467824    0.87308024  -64.64933643
     atom   32 type  1   force =    -0.08468923    0.87307017  -64.64940095
     atom   33 type  2   force =     0.17132644    0.00000000 -168.57522981
     atom   34 type  2   force =     0.17115486    0.00000000 -168.57518363
     atom   35 type  1   force =    -0.08467824   -0.87308024  -64.64933643
     atom   36 type  1   force =    -0.08468923   -0.87307017  -64.64940095
     atom   37 type  1   force =    -0.06570682    0.00000000  -89.89217794
     atom   38 type  1   force =    -0.06576409   -0.00000000  -89.89218442
     atom   39 type  1   force =     1.17927732    0.00000000  -92.52080406
     atom   40 type  1   force =     1.17878115   -0.00000000  -92.52101834
     atom   41 type  3   force =    -2.91646017   -0.00000000   15.73012366
     atom   42 type  3   force =    -2.91646017    0.00000000  -15.73012366
     atom   43 type  3   force =    -2.91608515    0.00000000   15.73001398
     atom   44 type  3   force =    -2.91608515    0.00000000  -15.73001398
     atom   45 type  3   force =     0.05774244   -2.14907838   16.63684008
     atom   46 type  3   force =     0.05774244   -2.14907838  -16.63684008
     atom   47 type  3   force =     0.05772382   -2.14907902   16.63684308
     atom   48 type  3   force =     0.05772382   -2.14907902  -16.63684308
     atom   49 type  3   force =     0.05774244    2.14907838   16.63684008
     atom   50 type  3   force =     0.05774244    2.14907838  -16.63684008
     atom   51 type  3   force =     0.05772382    2.14907902   16.63684308
     atom   52 type  3   force =     0.05772382    2.14907902  -16.63684308
     The core correction contribution to forces
     atom    1 type  1   force =    -0.01675993   -0.00000000   -0.00292481
     atom    2 type  1   force =    -0.01676170   -0.00000000   -0.00292460
     atom    3 type  1   force =     0.00051452   -0.00000000    0.01330300
     atom    4 type  1   force =     0.00051449   -0.00000000    0.01330299
     atom    5 type  2   force =     0.00000000    0.00000000    0.00000000
     atom    6 type  2   force =     0.00000000    0.00000000    0.00000000
     atom    7 type  1   force =     0.00019775    0.00100377    0.00026916
     atom    8 type  1   force =     0.00019774    0.00100373    0.00026923
     atom    9 type  2   force =     0.00000000    0.00000000    0.00000000
     atom   10 type  2   force =     0.00000000    0.00000000    0.00000000
     atom   11 type  1   force =     0.00019775   -0.00100377    0.00026916
     atom   12 type  1   force =     0.00019774   -0.00100373    0.00026923
     atom   13 type  1   force =     0.00000056   -0.00000000    0.00231277
     atom   14 type  1   force =     0.00000057   -0.00000000    0.00231277
     atom   15 type  1   force =     0.00005289   -0.00000000    0.00070085
     atom   16 type  1   force =     0.00005287   -0.00000000    0.00070077
     atom   17 type  2   force =     0.00000000    0.00000000    0.00000000
     atom   18 type  2   force =     0.00000000    0.00000000    0.00000000
     atom   19 type  1   force =    -0.00009033   -0.00035666   -0.00000204
     atom   20 type  1   force =    -0.00009033   -0.00035666   -0.00000204
     atom   21 type  2   force =     0.00000000    0.00000000    0.00000000
     atom   22 type  2   force =     0.00000000    0.00000000    0.00000000
     atom   23 type  1   force =    -0.00009033    0.00035615   -0.00000204
     atom   24 type  1   force =    -0.00009033    0.00035615   -0.00000204
     atom   25 type  1   force =     0.00005288   -0.00000000   -0.00070329
     atom   26 type  1   force =     0.00005285   -0.00000000   -0.00070321
     atom   27 type  1   force =     0.00000057   -0.00000000   -0.00231486
     atom   28 type  1   force =     0.00000057   -0.00000000   -0.00231486
     atom   29 type  2   force =     0.00000000    0.00000000    0.00000000
     atom   30 type  2   force =     0.00000000    0.00000000    0.00000000
     atom   31 type  1   force =     0.00019775    0.00100400   -0.00027130
     atom   32 type  1   force =     0.00019774    0.00100396   -0.00027137
     atom   33 type  2   force =     0.00000000    0.00000000    0.00000000
     atom   34 type  2   force =     0.00000000    0.00000000    0.00000000
     atom   35 type  1   force =     0.00019775   -0.00100400   -0.00027130
     atom   36 type  1   force =     0.00019774   -0.00100396   -0.00027137
     atom   37 type  1   force =     0.00051460   -0.00000000   -0.01330712
     atom   38 type  1   force =     0.00051457    0.00000000   -0.01330712
     atom   39 type  1   force =    -0.01676065    0.00000000    0.00292271
     atom   40 type  1   force =    -0.01676242    0.00000000    0.00292250
     atom   41 type  3   force =     0.00000000    0.00000000    0.00000000
     atom   42 type  3   force =     0.00000000    0.00000000    0.00000000
     atom   43 type  3   force =     0.00000000    0.00000000    0.00000000
     atom   44 type  3   force =     0.00000000    0.00000000    0.00000000
     atom   45 type  3   force =     0.00000000    0.00000000    0.00000000
     atom   46 type  3   force =     0.00000000    0.00000000    0.00000000
     atom   47 type  3   force =     0.00000000    0.00000000    0.00000000
     atom   48 type  3   force =     0.00000000    0.00000000    0.00000000
     atom   49 type  3   force =     0.00000000    0.00000000    0.00000000
     atom   50 type  3   force =     0.00000000    0.00000000    0.00000000
     atom   51 type  3   force =     0.00000000    0.00000000    0.00000000
     atom   52 type  3   force =     0.00000000    0.00000000    0.00000000
     The Hubbard contrib.    to forces
     atom    1 type  1   force =     0.00000000    0.00000000    0.00000000
     atom    2 type  1   force =     0.00000000    0.00000000    0.00000000
     atom    3 type  1   force =     0.00000000    0.00000000    0.00000000
     atom    4 type  1   force =     0.00000000    0.00000000    0.00000000
     atom    5 type  2   force =     0.00000000    0.00000000    0.00000000
     atom    6 type  2   force =     0.00000000    0.00000000    0.00000000
     atom    7 type  1   force =     0.00000000    0.00000000    0.00000000
     atom    8 type  1   force =     0.00000000    0.00000000    0.00000000
     atom    9 type  2   force =     0.00000000    0.00000000    0.00000000
     atom   10 type  2   force =     0.00000000    0.00000000    0.00000000
     atom   11 type  1   force =     0.00000000    0.00000000    0.00000000
     atom   12 type  1   force =     0.00000000    0.00000000    0.00000000
     atom   13 type  1   force =     0.00000000    0.00000000    0.00000000
     atom   14 type  1   force =     0.00000000    0.00000000    0.00000000
     atom   15 type  1   force =     0.00000000    0.00000000    0.00000000
     atom   16 type  1   force =     0.00000000    0.00000000    0.00000000
     atom   17 type  2   force =     0.00000000    0.00000000    0.00000000
     atom   18 type  2   force =     0.00000000    0.00000000    0.00000000
     atom   19 type  1   force =     0.00000000    0.00000000    0.00000000
     atom   20 type  1   force =     0.00000000    0.00000000    0.00000000
     atom   21 type  2   force =     0.00000000    0.00000000    0.00000000
     atom   22 type  2   force =     0.00000000    0.00000000    0.00000000
     atom   23 type  1   force =     0.00000000    0.00000000    0.00000000
     atom   24 type  1   force =     0.00000000    0.00000000    0.00000000
     atom   25 type  1   force =     0.00000000    0.00000000    0.00000000
     atom   26 type  1   force =     0.00000000    0.00000000    0.00000000
     atom   27 type  1   force =     0.00000000    0.00000000    0.00000000
     atom   28 type  1   force =     0.00000000    0.00000000    0.00000000
     atom   29 type  2   force =     0.00000000    0.00000000    0.00000000
     atom   30 type  2   force =     0.00000000    0.00000000    0.00000000
     atom   31 type  1   force =     0.00000000    0.00000000    0.00000000
     atom   32 type  1   force =     0.00000000    0.00000000    0.00000000
     atom   33 type  2   force =     0.00000000    0.00000000    0.00000000
     atom   34 type  2   force =     0.00000000    0.00000000    0.00000000
     atom   35 type  1   force =     0.00000000    0.00000000    0.00000000
     atom   36 type  1   force =     0.00000000    0.00000000    0.00000000
     atom   37 type  1   force =     0.00000000    0.00000000    0.00000000
     atom   38 type  1   force =     0.00000000    0.00000000    0.00000000
     atom   39 type  1   force =     0.00000000    0.00000000    0.00000000
     atom   40 type  1   force =     0.00000000    0.00000000    0.00000000
     atom   41 type  3   force =     0.00000000    0.00000000    0.00000000
     atom   42 type  3   force =     0.00000000    0.00000000    0.00000000
     atom   43 type  3   force =     0.00000000    0.00000000    0.00000000
     atom   44 type  3   force =     0.00000000    0.00000000    0.00000000
     atom   45 type  3   force =     0.00000000    0.00000000    0.00000000
     atom   46 type  3   force =     0.00000000    0.00000000    0.00000000
     atom   47 type  3   force =     0.00000000    0.00000000    0.00000000
     atom   48 type  3   force =     0.00000000    0.00000000    0.00000000
     atom   49 type  3   force =     0.00000000    0.00000000    0.00000000
     atom   50 type  3   force =     0.00000000    0.00000000    0.00000000
     atom   51 type  3   force =     0.00000000    0.00000000    0.00000000
     atom   52 type  3   force =     0.00000000    0.00000000    0.00000000
     The SCF correction term to forces
     atom    1 type  1   force =     0.00000030    0.00000000    0.00000133
     atom    2 type  1   force =    -0.00000031   -0.00000000    0.00000145
     atom    3 type  1   force =     0.00000033    0.00000000    0.00000068
     atom    4 type  1   force =    -0.00000037   -0.00000000    0.00000075
     atom    5 type  2   force =     0.00000005   -0.00000000   -0.00000063
     atom    6 type  2   force =     0.00000070   -0.00000000   -0.00000048
     atom    7 type  1   force =    -0.00000026   -0.00000062    0.00000026
     atom    8 type  1   force =     0.00000017   -0.00000068    0.00000022
     atom    9 type  2   force =     0.00000075    0.00000000    0.00000073
     atom   10 type  2   force =    -0.00000074    0.00000000    0.00000118
     atom   11 type  1   force =    -0.00000026    0.00000062    0.00000026
     atom   12 type  1   force =     0.00000017    0.00000068    0.00000022
     atom   13 type  1   force =     0.00000025   -0.00000000   -0.00000043
     atom   14 type  1   force =    -0.00000026    0.00000000   -0.00000020
     atom   15 type  1   force =     0.00000116    0.00000000   -0.00000028
     atom   16 type  1   force =    -0.00000091    0.00000000   -0.00000007
     atom   17 type  2   force =     0.00000105   -0.00000000   -0.00000002
     atom   18 type  2   force =    -0.00000106   -0.00000000   -0.00000002
     atom   19 type  1   force =    -0.00000018    0.00000015   -0.00000001
     atom   20 type  1   force =    -0.00000042   -0.00000100   -0.00000001
     atom   21 type  2   force =     0.00000016    0.00000000   -0.00000002
     atom   22 type  2   force =    -0.00000004    0.00000000   -0.00000002
     atom   23 type  1   force =    -0.00000018   -0.00000015   -0.00000001
     atom   24 type  1   force =    -0.00000042    0.00000100   -0.00000001
     atom   25 type  1   force =     0.00000116    0.00000000    0.00000027
     atom   26 type  1   force =    -0.00000091    0.00000000    0.00000006
     atom   27 type  1   force =     0.00000025   -0.00000000    0.00000042
     atom   28 type  1   force =    -0.00000026   -0.00000000    0.00000019
     atom   29 type  2   force =     0.00000005   -0.00000000    0.00000061
     atom   30 type  2   force =     0.00000070   -0.00000000    0.00000046
     atom   31 type  1   force =    -0.00000026   -0.00000062   -0.00000026
     atom   32 type  1   force =     0.00000017   -0.00000068   -0.00000022
     atom   33 type  2   force =     0.00000075    0.00000000   -0.00000075
     atom   34 type  2   force =    -0.00000074    0.00000000   -0.00000120
     atom   35 type  1   force =    -0.00000026    0.00000062   -0.00000026
     atom   36 type  1   force =     0.00000017    0.00000068   -0.00000022
     atom   37 type  1   force =     0.00000033    0.00000000   -0.00000068
     atom   38 type  1   force =    -0.00000037    0.00000000   -0.00000075
     atom   39 type  1   force =     0.00000030    0.00000000   -0.00000132
     atom   40 type  1   force =    -0.00000031   -0.00000000   -0.00000144
     atom   41 type  3   force =    -0.00000000    0.00000000    0.00000020
     atom   42 type  3   force =    -0.00000000   -0.00000000   -0.00000020
     atom   43 type  3   force =     0.00000005   -0.00000000    0.00000018
     atom   44 type  3   force =     0.00000005   -0.00000000   -0.00000018
     atom   45 type  3   force =     0.00000005   -0.00000016    0.00000022
     atom   46 type  3   force =     0.00000005   -0.00000016   -0.00000022
     atom   47 type  3   force =    -0.00000004   -0.00000016    0.00000021
     atom   48 type  3   force =    -0.00000004   -0.00000016   -0.00000021
     atom   49 type  3   force =     0.00000005    0.00000016    0.00000022
     atom   50 type  3   force =     0.00000005    0.00000016   -0.00000022
     atom   51 type  3   force =    -0.00000004    0.00000016    0.00000021
     atom   52 type  3   force =    -0.00000004    0.00000016   -0.00000021

     Total force =     0.000812     Total SCF correction =     0.000006
     Energy error            =      9.7E-07 Ry
     Gradient error          =      2.4E-04 Ry/Bohr

     number of scf cycles    =  25
     number of bfgs steps    =  24

     energy             old  =   -3442.4815738740 Ry
     energy             new  =   -3442.4815748472 Ry

     CASE: energy            _new < energy            _old

     new trust radius        =       0.0008859967 bohr
     new conv_thr            =            1.0E-11 Ry


ATOMIC_POSITIONS (crystal)
O             0.0020439581        0.5000000000        0.2609350689
O             0.5020374629        0.5000000000        0.2609355293
O            -0.0041726291        0.0000000000        0.2891294391
O             0.4958273477        0.0000000000        0.2891294405
Ru            0.2466439964        0.0000000000        0.3598211241
Ru            0.7466439950        0.0000000000        0.3598211218
O             0.2497652533        0.3129629839        0.3542338383
O             0.7497652517        0.3129629358        0.3542338616
Ru           -0.0001937895        0.5000000000        0.3556298307
Ru            0.4998065422        0.5000000000        0.3556297983
O             0.2497652533        0.6870370161        0.3542338383
O             0.7497652517        0.6870370642        0.3542338616
O            -0.0030014945        0.0000000000        0.4120966485
O             0.4969984883        0.0000000000        0.4120966464
O            -0.0017747116        0.5000000000        0.4448082835
O             0.4982252789        0.5000000000        0.4448082800
Ru           -0.0032463517        0.0000000000        0.5000010000
Ru            0.4967536833        0.0000000000        0.5000010000
O             0.2465031635        0.1868033127        0.5000010000
O             0.7465031629        0.1868032552        0.5000010000
Ru            0.2487468982        0.5000000000        0.5000010000
Ru            0.7487469240        0.5000000000        0.5000010000
O             0.2465031635        0.8131976873        0.5000010000
O             0.7465031629        0.8131977448        0.5000010000
O            -0.0017747116        0.5000000000        0.5551927165
O             0.4982252789        0.5000000000        0.5551927200
O            -0.0030014945        0.0000000000        0.5879043515
O             0.4969984883        0.0000000000        0.5879043536
Ru            0.2466439964        0.0000000000        0.6401798759
Ru            0.7466439950        0.0000000000        0.6401798782
O             0.2497652533        0.3129629839        0.6457671617
O             0.7497652517        0.3129629358        0.6457671384
Ru           -0.0001937895        0.5000000000        0.6443711693
Ru            0.4998065422        0.5000000000        0.6443712017
O             0.2497652533        0.6870370161        0.6457671617
O             0.7497652517        0.6870370642        0.6457671384
O            -0.0041726291        0.0000000000        0.7108725609
O             0.4958273477        0.0000000000        0.7108725595
O             0.0020439581        0.5000000000        0.7390659311
O             0.5020374629        0.5000000000        0.7390654707
H             0.1473372062        0.5000000000        0.2507743143
H             0.1473372062        0.5000000000        0.7492256857
H             0.6473434716        0.5000000000        0.2507738956
H             0.6473434716        0.5000000000        0.7492261044
H            -0.0065157826        0.1394911245        0.2644243716
H            -0.0065157826        0.1394911245        0.7355756284
H             0.4934842645        0.1394911150        0.2644243727
H             0.4934842645        0.1394911150        0.7355756273
H            -0.0065157826        0.8605088755        0.2644243716
H            -0.0065157826        0.8605088755        0.7355756284
H             0.4934842645        0.8605088850        0.2644243727
H             0.4934842645        0.8605088850        0.7355756273



     Writing config-only to output data dir /storage/home/mgm6007/ixd4/Maria/StrainJin_Files/RuO2-110-0-012345/RuO2-110-0-012345.save/
     NEW-OLD atomic charge density approx. for the potential

     Check: negative core charge=   -0.000001

     negative rho (up, down):  8.026E-05 0.000E+00

     add environment contribution to local potential
     Polarization accuracy = 2.0E-12, # of iterations =  36

     total cpu time spent up to now is   259061.5 secs

     per-process dynamical memory:   228.9 Mb

     Self-consistent Calculation

     iteration #  1     ecut=    50.00 Ry     beta= 0.70
     Davidson diagonalization with overlap
     ethr =  1.00E-06,  avg # of iterations =  2.0

     Threshold (ethr) on eigenvalues was too large:
     Diagonalizing with lowered threshold

     Davidson diagonalization with overlap
     ethr =  6.07E-10,  avg # of iterations =  4.0
