
     Program PWSCF v.7.2 starts on 26Jul2023 at 11:17:38 
        Git branch: heads/qe-7.2
        Last git commit: b4c5e8deeb7d1863e7553a87b45f8d22c21926a5
        Last git commit date: Mon Mar 27 16:12:09 2023 +0000
        Last git commit subject: Merge branch 'merge_fix_hubbard' into 'develop'

     This program is part of the open-source Quantum ESPRESSO suite
     for quantum simulation of materials; please cite
         "P. Giannozzi et al., J. Phys.:Condens. Matter 21 395502 (2009);
         "P. Giannozzi et al., J. Phys.:Condens. Matter 29 465901 (2017);
         "P. Giannozzi et al., J. Chem. Phys. 152 154105 (2020);
          URL http://www.quantum-espresso.org", 
     in publications or presentations arising from this work. More details at
     http://www.quantum-espresso.org/quote

     Parallel version (MPI), running on    20 processors

     MPI processes distributed on     1 nodes
     102573 MiB available memory on the printing compute node when the environment starts
 
     Reading input from RuO2-110-0-24.in

     Current dimensions of program PWSCF are:
     Max number of different atomic species (ntypx) = 10
     Max number of k-points (npk) =  40000
     Max angular momentum in pseudopotentials (lmaxx) =  4
 
     Reading input from environ.in:
     * Environ restarting
     * setting up water environment
     * using electronic solvent mode
     * setting boundary derivatives method to SCCS default
     
     file O.pbe-n-kjpaw_psl.0.1.UPF: wavefunction(s)  2P renormalized
     Message from routine setup:
     using ibrav=0 with symmetry is DISCOURAGED, use correct ibrav instead
 
     R & G space division:  proc/nbgrp/npool/nimage =      20
     Subspace diagonalization in iterative solution of the eigenvalue problem:
     one sub-group per band group will be used
     scalapack distributed-memory algorithm (size of sub-group:  2*  2 procs)

 
     Parallelization info
     --------------------
     sticks:   dense  smooth     PW     G-vecs:    dense   smooth      PW
     Min         276     110     29                54982    13912    1877
     Max         277     111     30                54993    13923    1888
     Sum        5537    2217    585              1099789   278381   37601
 
     Using Slab Decomposition
 


     bravais-lattice index     =            0
     lattice parameter (alat)  =      12.3824  a.u.
     unit-cell volume          =    5825.9133 (a.u.)^3
     number of atoms/cell      =           44
     number of atomic types    =            3
     number of electrons       =       364.00
     number of Kohn-Sham states=          218
     kinetic-energy cutoff     =      50.0000  Ry
     charge density cutoff     =     500.0000  Ry
     scf convergence threshold =      1.0E-09
     mixing beta               =       0.7000
     number of iterations used =            8  local-TF  mixing
     energy convergence thresh.=      1.0E-04
     force convergence thresh. =      1.0E-04
     Exchange-correlation= PBE
                           (   1   4   3   4   0   0   0)
     nstep                     =          200


     ================================================================================
 
                                  Environ Setup Summary

     ================================================================================
 
     Please cite

          O. Andreussi, I. Dabo and N. Marzari, J. Chem. Phys. 136, 064102 (2012)

     in publications or presentations arising from this work.

     ================================================================================
 
     Parameters
     ==========

     compensation onset threshold      =               0.1000E+00
     static permittivity               =                    78.30
     surface tension in input (dyn/cm) =                    47.90
     surface tension in internal units =               0.6153E-04
     external pressure in input (GPa)  =                    -0.36
     external pressure in inter. units =              -0.2447E-04

     Solvent Boundary
     ================

     solvent mode                      =               electronic
     derivatives method                =                    chain
     numerical core for derivatives    =                      fft
     switching function adopted        =                     SCCS
     density limit for vacuum region   =               0.5000E-02
     density limit for bulk solvent    =               0.1000E-03

     Electrostatic Setup
     ===================

     electrostatic problem to solve    =              generalized
     numerical solver adopted          =                       cg
     type of auxiliary density adopted =                     none
     numerical core for poisson        =                      fft
     type of pbc corrections           =                parabolic
     numerical core for corrections    =                      1da

     ================================================================================
 

     celldm(1)=  12.382447  celldm(2)=   0.000000  celldm(3)=   0.000000
     celldm(4)=   0.000000  celldm(5)=   0.000000  celldm(6)=   0.000000

     crystal axes: (cart. coord. in units of alat)
               a(1) = (   1.000000   0.000000   0.000000 )  
               a(2) = (   0.000000   0.908473   0.000000 )  
               a(3) = (   0.000000   0.000000   3.377790 )  

     reciprocal axes: (cart. coord. in units 2 pi/alat)
               b(1) = (  1.000000  0.000000  0.000000 )  
               b(2) = (  0.000000  1.100748  0.000000 )  
               b(3) = (  0.000000  0.000000  0.296052 )  


     PseudoPot. # 1 for O  read from file:
     /gpfs/group/ixd4/default/Simon/pseudopotentials/materialscloud/SSSP_1.3.0_PBE_efficiency/O.pbe-n-kjpaw_psl.0.1.UPF
     MD5 check sum: 0234752ac141de4415c5fc33072bef88
     Pseudo is Projector augmented-wave + core cor, Zval =  6.0
     Generated using "atomic" code by A. Dal Corso  v.5.0.99 svn rev. 10869
     Shape of augmentation charge: BESSEL
     Using radial grid of 1095 points,  4 beta functions with: 
                l(1) =   0
                l(2) =   0
                l(3) =   1
                l(4) =   1
     Q(r) pseudized with 0 coefficients 


     PseudoPot. # 2 for Ru read from file:
     /gpfs/group/ixd4/default/Simon/pseudopotentials/materialscloud/SSSP_1.3.0_PBE_efficiency/Ru_ONCV_PBE-1.0.oncvpsp.upf
     MD5 check sum: be037bb81c227cfb9b1461a9f099f4bd
     Pseudo is Norm-conserving, Zval = 16.0
     Generated using ONCVPSP code by D. R. Hamann
     Using radial grid of 1458 points,  6 beta functions with: 
                l(1) =   0
                l(2) =   0
                l(3) =   1
                l(4) =   1
                l(5) =   2
                l(6) =   2

     PseudoPot. # 3 for H  read from file:
     /gpfs/group/ixd4/default/Simon/pseudopotentials/materialscloud/SSSP_1.3.0_PBE_efficiency/H.pbe-rrkjus_psl.1.0.0.UPF
     MD5 check sum: f52b6d4d1c606e5624b1dc7b2218f220
     Pseudo is Ultrasoft, Zval =  1.0
     Generated using "atomic" code by A. Dal Corso  v.5.1
     Using radial grid of  929 points,  2 beta functions with: 
                l(1) =   0
                l(2) =   0
     Q(r) pseudized with 0 coefficients 


     atomic species   valence    mass     pseudopotential
        O              6.00    15.99940     O ( 1.00)
        Ru            16.00   101.07000     Ru( 1.00)
        H              1.00     1.00794     H ( 1.00)

      8 Sym. Ops., with inversion, found



   Cartesian axes

     site n.     atom                  positions (alat units)
         1           O   tau(   1) = (   0.0000000   0.4542364   0.9269989  )
         2           O   tau(   2) = (   0.5000000   0.4542364   0.9230426  )
         3           O   tau(   3) = (   0.0000000   0.0000000   0.9824139  )
         4           O   tau(   4) = (   0.5000000   0.0000000   1.0372617  )
         5           Ru  tau(   5) = (   0.2637543   0.0000000   1.2102284  )
         6           Ru  tau(   6) = (   0.7362457   0.0000000   1.2102284  )
         7           O   tau(   7) = (   0.2497652   0.2839472   1.2128694  )
         8           O   tau(   8) = (   0.7502348   0.2839472   1.2128694  )
         9           Ru  tau(   9) = (   0.0000000   0.4542364   1.1968856  )
        10           Ru  tau(  10) = (   0.5000000   0.4542364   1.1866481  )
        11           O   tau(  11) = (   0.2497652   0.6245257   1.2128694  )
        12           O   tau(  12) = (   0.7502348   0.6245257   1.2128694  )
        13           O   tau(  13) = (   0.0000000   0.0000000   1.3880420  )
        14           O   tau(  14) = (   0.5000000   0.0000000   1.3920693  )
        15           O   tau(  15) = (   0.0000000   0.4542364   1.5046056  )
        16           O   tau(  16) = (   0.5000000   0.4542364   1.5027900  )
        17           Ru  tau(  17) = (   0.0000000   0.0000000   1.6888985  )
        18           Ru  tau(  18) = (   0.5000000   0.0000000   1.6888985  )
        19           O   tau(  19) = (   0.2491165   0.1690823   1.6888985  )
        20           O   tau(  20) = (   0.7508835   0.1690823   1.6888985  )
        21           Ru  tau(  21) = (   0.2515136   0.4542364   1.6888985  )
        22           Ru  tau(  22) = (   0.7484864   0.4542364   1.6888985  )
        23           O   tau(  23) = (   0.2491165   0.7393915   1.6888985  )
        24           O   tau(  24) = (   0.7508835   0.7393915   1.6888985  )
        25           O   tau(  25) = (   0.0000000   0.4542364   1.8731881  )
        26           O   tau(  26) = (   0.5000000   0.4542364   1.8750037  )
        27           O   tau(  27) = (   0.0000000   0.0000000   1.9897517  )
        28           O   tau(  28) = (   0.5000000   0.0000000   1.9857244  )
        29           Ru  tau(  29) = (   0.2637543   0.0000000   2.1675653  )
        30           Ru  tau(  30) = (   0.7362457   0.0000000   2.1675653  )
        31           O   tau(  31) = (   0.2497652   0.2839472   2.1649243  )
        32           O   tau(  32) = (   0.7502348   0.2839472   2.1649243  )
        33           Ru  tau(  33) = (   0.0000000   0.4542364   2.1809081  )
        34           Ru  tau(  34) = (   0.5000000   0.4542364   2.1911456  )
        35           O   tau(  35) = (   0.2497652   0.6245257   2.1649243  )
        36           O   tau(  36) = (   0.7502348   0.6245257   2.1649243  )
        37           O   tau(  37) = (   0.0000000   0.0000000   2.3953831  )
        38           O   tau(  38) = (   0.5000000   0.0000000   2.3405353  )
        39           O   tau(  39) = (   0.0000000   0.4542364   2.4507948  )
        40           O   tau(  40) = (   0.5000000   0.4542364   2.4547511  )
        41           H   tau(  41) = (   0.0000000   0.1207136   0.8910903  )
        42           H   tau(  42) = (   0.0000000   0.1207136   2.4867000  )
        43           H   tau(  43) = (   0.0000000   0.7877593   0.8910903  )
        44           H   tau(  44) = (   0.0000000   0.7877593   2.4867000  )

     number of k points=     1  Marzari-Vanderbilt smearing, width (Ry)=  0.0300
                       cart. coord. in units 2pi/alat
        k(    1) = (   0.2500000   0.2751871   0.0000000), wk =   2.0000000

     Dense  grid:  1099789 G-vectors     FFT dimensions: (  90,  81, 300)

     Smooth grid:   278381 G-vectors     FFT dimensions: (  60,  54, 192)

     Estimated max dynamical RAM per process >     168.51 MB

     Estimated total dynamical RAM >       3.29 GB

     Check: negative core charge=   -0.000001

     Initial potential from superposition of free atoms

     starting charge     363.9933, renormalised to     364.0000

     add environment contribution to local potential
     Polarization accuracy = 1.0E-12, # of iterations =  23

     negative rho (up, down):  3.582E-05 0.000E+00
     Starting wfcs are  236 randomized atomic wfcs
     Checking if some PAW data can be deallocated... 

     total cpu time spent up to now is      714.0 secs

     per-process dynamical memory:   137.5 Mb

     Self-consistent Calculation

     iteration #  1     ecut=    50.00 Ry     beta= 0.70
     Davidson diagonalization with overlap
     ethr =  1.00E-02,  avg # of iterations =  2.0

     total cpu time spent up to now is      878.4 secs

     total energy              =   -3429.92144543 Ry
     estimated scf accuracy    <      10.45730580 Ry
     electrostatic embedding   =      -0.00161853 Ry
     cavitation energy         =       0.01940079 Ry
     PV energy                 =      -0.08281546 Ry
     correction to one-el term =     218.11592280 Ry

     iteration #  2     ecut=    50.00 Ry     beta= 0.70
     Davidson diagonalization with overlap
     ethr =  2.87E-03,  avg # of iterations =  2.0

     total cpu time spent up to now is     1114.2 secs

     total energy              =   -3432.18538323 Ry
     estimated scf accuracy    <       3.01628887 Ry
     electrostatic embedding   =      -0.00237488 Ry
     cavitation energy         =       0.01959817 Ry
     PV energy                 =      -0.08293729 Ry
     correction to one-el term =     218.11773985 Ry

     iteration #  3     ecut=    50.00 Ry     beta= 0.70
     Davidson diagonalization with overlap
     ethr =  8.29E-04,  avg # of iterations =  1.0

     total cpu time spent up to now is     1345.2 secs

     total energy              =   -3432.43009288 Ry
     estimated scf accuracy    <       0.47583509 Ry
     electrostatic embedding   =      -0.00281787 Ry
     cavitation energy         =       0.01958776 Ry
     PV energy                 =      -0.08334655 Ry
     correction to one-el term =     218.11904343 Ry

     iteration #  4     ecut=    50.00 Ry     beta= 0.70
     Davidson diagonalization with overlap
     ethr =  1.31E-04,  avg # of iterations =  2.0

     total cpu time spent up to now is     1503.6 secs

     total energy              =   -3432.47241695 Ry
     estimated scf accuracy    <       0.77718013 Ry
     electrostatic embedding   =      -0.00294865 Ry
     cavitation energy         =       0.01979898 Ry
     PV energy                 =      -0.08291978 Ry
     correction to one-el term =     218.11904946 Ry

     iteration #  5     ecut=    50.00 Ry     beta= 0.70
     Davidson diagonalization with overlap
     ethr =  1.31E-04,  avg # of iterations =  1.0

     total cpu time spent up to now is     1703.0 secs

     total energy              =   -3432.46231417 Ry
     estimated scf accuracy    <       0.34290755 Ry
     electrostatic embedding   =      -0.00315999 Ry
     cavitation energy         =       0.02001998 Ry
     PV energy                 =      -0.08261471 Ry
     correction to one-el term =     218.11937181 Ry

     iteration #  6     ecut=    50.00 Ry     beta= 0.70
     Davidson diagonalization with overlap
     ethr =  9.42E-05,  avg # of iterations =  1.0

     total cpu time spent up to now is     1851.2 secs

     total energy              =   -3432.45465673 Ry
     estimated scf accuracy    <       0.25657976 Ry
     electrostatic embedding   =      -0.00335144 Ry
     cavitation energy         =       0.02042513 Ry
     PV energy                 =      -0.08180390 Ry
     correction to one-el term =     218.11945112 Ry

     iteration #  7     ecut=    50.00 Ry     beta= 0.70
     Davidson diagonalization with overlap
     ethr =  7.05E-05,  avg # of iterations =  1.0

     total cpu time spent up to now is     1999.2 secs

     total energy              =   -3432.44977407 Ry
     estimated scf accuracy    <       0.12838794 Ry
     electrostatic embedding   =      -0.00336148 Ry
     cavitation energy         =       0.02066092 Ry
     PV energy                 =      -0.08123131 Ry
     correction to one-el term =     218.11922944 Ry

     iteration #  8     ecut=    50.00 Ry     beta= 0.70
     Davidson diagonalization with overlap
     ethr =  3.53E-05,  avg # of iterations =  9.0

     add environment contribution to local potential
     Polarization accuracy = 2.9E-12, # of iterations =  40

     total cpu time spent up to now is     2214.0 secs

     total energy              =   -3432.44797165 Ry
     estimated scf accuracy    <       0.03684898 Ry
     electrostatic embedding   =      -0.00321651 Ry
     cavitation energy         =       0.02096986 Ry
     PV energy                 =      -0.08033674 Ry
     correction to one-el term =     218.11847494 Ry

     iteration #  9     ecut=    50.00 Ry     beta= 0.70
     Davidson diagonalization with overlap
     ethr =  1.01E-05,  avg # of iterations = 10.0

     total cpu time spent up to now is     2419.0 secs

     total energy              =   -3432.52348245 Ry
     estimated scf accuracy    <       0.32259929 Ry
     electrostatic embedding   =      -0.06329793 Ry
     cavitation energy         =       0.02116141 Ry
     PV energy                 =      -0.07984038 Ry
     correction to one-el term =     184.35092780 Ry

     iteration # 10     ecut=    50.00 Ry     beta= 0.70
     Davidson diagonalization with overlap
     ethr =  1.01E-05,  avg # of iterations =  1.0

     total cpu time spent up to now is     2601.5 secs

     total energy              =   -3432.50210683 Ry
     estimated scf accuracy    <       0.29044639 Ry
     electrostatic embedding   =      -0.06346715 Ry
     cavitation energy         =       0.02116880 Ry
     PV energy                 =      -0.07982167 Ry
     correction to one-el term =     184.35146468 Ry

     iteration # 11     ecut=    50.00 Ry     beta= 0.70
     Davidson diagonalization with overlap
     ethr =  1.01E-05,  avg # of iterations =  2.0

     add environment contribution to local potential
     Polarization accuracy = 9.8E-12, # of iterations =  39

     total cpu time spent up to now is     2761.3 secs

     total energy              =   -3432.50050609 Ry
     estimated scf accuracy    <       0.02820969 Ry
     electrostatic embedding   =      -0.06622961 Ry
     cavitation energy         =       0.02118275 Ry
     PV energy                 =      -0.07961840 Ry
     correction to one-el term =     184.35992733 Ry

     iteration # 12     ecut=    50.00 Ry     beta= 0.70
     Davidson diagonalization with overlap
     ethr =  7.75E-06,  avg # of iterations =  2.0

     negative rho (up, down):  2.163E-05 0.000E+00

     add environment contribution to local potential
     Polarization accuracy = 5.4E-12, # of iterations =  41

     total cpu time spent up to now is     2920.7 secs

     total energy              =   -3432.50739959 Ry
     estimated scf accuracy    <       0.03207069 Ry
     electrostatic embedding   =      -0.07613866 Ry
     cavitation energy         =       0.02110210 Ry
     PV energy                 =      -0.07964891 Ry
     correction to one-el term =     184.72793748 Ry

     iteration # 13     ecut=    50.00 Ry     beta= 0.70
     Davidson diagonalization with overlap
     ethr =  7.75E-06,  avg # of iterations =  7.0

     negative rho (up, down):  5.473E-05 0.000E+00

     add environment contribution to local potential
     Polarization accuracy = 3.9E-12, # of iterations =  42

     total cpu time spent up to now is     3200.0 secs

     total energy              =   -3432.51243324 Ry
     estimated scf accuracy    <       0.00399667 Ry
     electrostatic embedding   =      -0.08959414 Ry
     cavitation energy         =       0.02107102 Ry
     PV energy                 =      -0.07949996 Ry
     correction to one-el term =     184.85700089 Ry

     iteration # 14     ecut=    50.00 Ry     beta= 0.70
     Davidson diagonalization with overlap
     ethr =  1.10E-06,  avg # of iterations =  4.0

     negative rho (up, down):  1.340E-04 0.000E+00

     add environment contribution to local potential
     Polarization accuracy = 2.3E-12, # of iterations =  41

     total cpu time spent up to now is     3391.1 secs

     total energy              =   -3432.51301770 Ry
     estimated scf accuracy    <       0.00243965 Ry
     electrostatic embedding   =      -0.09224141 Ry
     cavitation energy         =       0.02102997 Ry
     PV energy                 =      -0.07952828 Ry
     correction to one-el term =     185.13255922 Ry

     iteration # 15     ecut=    50.00 Ry     beta= 0.70
     Davidson diagonalization with overlap
     ethr =  6.70E-07,  avg # of iterations =  5.0

     negative rho (up, down):  1.913E-06 0.000E+00

     add environment contribution to local potential
     Polarization accuracy = 2.3E-12, # of iterations =  41

     total cpu time spent up to now is     3593.7 secs

     total energy              =   -3432.51350027 Ry
     estimated scf accuracy    <       0.00436149 Ry
     electrostatic embedding   =      -0.09908927 Ry
     cavitation energy         =       0.02090617 Ry
     PV energy                 =      -0.07963700 Ry
     correction to one-el term =     185.98832533 Ry

     iteration # 16     ecut=    50.00 Ry     beta= 0.70
     Davidson diagonalization with overlap
     ethr =  6.70E-07,  avg # of iterations =  2.0

     negative rho (up, down):  1.058E-05 0.000E+00

     add environment contribution to local potential
     Polarization accuracy = 8.8E-12, # of iterations =  40

     total cpu time spent up to now is     3890.7 secs

     total energy              =   -3432.51377087 Ry
     estimated scf accuracy    <       0.00377888 Ry
     electrostatic embedding   =      -0.09852625 Ry
     cavitation energy         =       0.02087766 Ry
     PV energy                 =      -0.07969028 Ry
     correction to one-el term =     186.29637995 Ry

     iteration # 17     ecut=    50.00 Ry     beta= 0.70
     Davidson diagonalization with overlap
     ethr =  6.70E-07,  avg # of iterations =  8.0

     negative rho (up, down):  1.034E-08 0.000E+00

     add environment contribution to local potential
     Polarization accuracy = 2.7E-12, # of iterations =  40

     total cpu time spent up to now is     4080.7 secs

     total energy              =   -3432.51334779 Ry
     estimated scf accuracy    <       0.00350225 Ry
     electrostatic embedding   =      -0.10077441 Ry
     cavitation energy         =       0.02079886 Ry
     PV energy                 =      -0.07978690 Ry
     correction to one-el term =     187.02125819 Ry

     iteration # 18     ecut=    50.00 Ry     beta= 0.70
     Davidson diagonalization with overlap
     ethr =  6.70E-07,  avg # of iterations =  8.0

     negative rho (up, down):  2.918E-05 0.000E+00

     add environment contribution to local potential
     Polarization accuracy = 5.1E-12, # of iterations =  40

     total cpu time spent up to now is     4331.6 secs

     total energy              =   -3432.51390624 Ry
     estimated scf accuracy    <       0.00013998 Ry
     electrostatic embedding   =      -0.09467544 Ry
     cavitation energy         =       0.02076336 Ry
     PV energy                 =      -0.07989671 Ry
     correction to one-el term =     187.67196786 Ry

     iteration # 19     ecut=    50.00 Ry     beta= 0.70
     Davidson diagonalization with overlap
     ethr =  3.85E-08,  avg # of iterations =  7.0

     negative rho (up, down):  7.903E-04 0.000E+00

     add environment contribution to local potential
     Polarization accuracy = 7.8E-12, # of iterations =  39

     total cpu time spent up to now is     4544.8 secs

     total energy              =   -3432.51392514 Ry
     estimated scf accuracy    <       0.00011027 Ry
     electrostatic embedding   =      -0.09496818 Ry
     cavitation energy         =       0.02076610 Ry
     PV energy                 =      -0.07986164 Ry
     correction to one-el term =     187.82742619 Ry

     iteration # 20     ecut=    50.00 Ry     beta= 0.70
     Davidson diagonalization with overlap
     ethr =  3.03E-08,  avg # of iterations =  2.0

     negative rho (up, down):  4.655E-06 0.000E+00

     add environment contribution to local potential
     Polarization accuracy = 4.7E-12, # of iterations =  40

     total cpu time spent up to now is     4778.6 secs

     total energy              =   -3432.51396506 Ry
     estimated scf accuracy    <       0.00001355 Ry
     electrostatic embedding   =      -0.09298496 Ry
     cavitation energy         =       0.02076461 Ry
     PV energy                 =      -0.07985939 Ry
     correction to one-el term =     188.07644505 Ry

     iteration # 21     ecut=    50.00 Ry     beta= 0.70
     Davidson diagonalization with overlap
     ethr =  3.72E-09,  avg # of iterations =  3.0

     negative rho (up, down):  2.064E-04 0.000E+00

     add environment contribution to local potential
     Polarization accuracy = 4.9E-12, # of iterations =  40

     total cpu time spent up to now is     4983.5 secs

     total energy              =   -3432.51397684 Ry
     estimated scf accuracy    <       0.00001373 Ry
     electrostatic embedding   =      -0.09235299 Ry
     cavitation energy         =       0.02077448 Ry
     PV energy                 =      -0.07983573 Ry
     correction to one-el term =     188.07457882 Ry

     iteration # 22     ecut=    50.00 Ry     beta= 0.70
     Davidson diagonalization with overlap
     ethr =  3.72E-09,  avg # of iterations =  6.0

     negative rho (up, down):  7.509E-05 0.000E+00

     add environment contribution to local potential
     Polarization accuracy = 5.0E-12, # of iterations =  40

     total cpu time spent up to now is     5240.2 secs

     total energy              =   -3432.51398185 Ry
     estimated scf accuracy    <       0.00000211 Ry
     electrostatic embedding   =      -0.09192600 Ry
     cavitation energy         =       0.02077188 Ry
     PV energy                 =      -0.07983444 Ry
     correction to one-el term =     188.16588925 Ry

     iteration # 23     ecut=    50.00 Ry     beta= 0.70
     Davidson diagonalization with overlap
     ethr =  5.80E-10,  avg # of iterations =  4.0

     negative rho (up, down):  6.756E-05 0.000E+00

     add environment contribution to local potential
     Polarization accuracy = 5.0E-12, # of iterations =  40

     total cpu time spent up to now is     5465.4 secs

     total energy              =   -3432.51398590 Ry
     estimated scf accuracy    <       0.00000051 Ry
     electrostatic embedding   =      -0.09168018 Ry
     cavitation energy         =       0.02077288 Ry
     PV energy                 =      -0.07982948 Ry
     correction to one-el term =     188.17568390 Ry

     iteration # 24     ecut=    50.00 Ry     beta= 0.70
     Davidson diagonalization with overlap
     ethr =  1.41E-10,  avg # of iterations =  2.0

     negative rho (up, down):  1.155E-04 0.000E+00

     add environment contribution to local potential
     Polarization accuracy = 5.0E-12, # of iterations =  40

     total cpu time spent up to now is     5703.6 secs

     total energy              =   -3432.51398681 Ry
     estimated scf accuracy    <       0.00000017 Ry
     electrostatic embedding   =      -0.09165130 Ry
     cavitation energy         =       0.02077280 Ry
     PV energy                 =      -0.07983008 Ry
     correction to one-el term =     188.17399470 Ry

     iteration # 25     ecut=    50.00 Ry     beta= 0.70
     Davidson diagonalization with overlap
     ethr =  4.58E-11,  avg # of iterations =  4.0

     negative rho (up, down):  1.387E-04 0.000E+00

     add environment contribution to local potential
     Polarization accuracy = 4.9E-12, # of iterations =  40

     total cpu time spent up to now is     5886.7 secs

     total energy              =   -3432.51398828 Ry
     estimated scf accuracy    <       0.00000008 Ry
     electrostatic embedding   =      -0.09156928 Ry
     cavitation energy         =       0.02077278 Ry
     PV energy                 =      -0.07983068 Ry
     correction to one-el term =     188.18627935 Ry

     iteration # 26     ecut=    50.00 Ry     beta= 0.70
     Davidson diagonalization with overlap
     ethr =  2.30E-11,  avg # of iterations =  2.0

     negative rho (up, down):  1.439E-04 0.000E+00

     add environment contribution to local potential
     Polarization accuracy = 4.9E-12, # of iterations =  40

     total cpu time spent up to now is     6115.9 secs

     total energy              =   -3432.51398852 Ry
     estimated scf accuracy    <       0.00000008 Ry
     electrostatic embedding   =      -0.09157450 Ry
     cavitation energy         =       0.02077251 Ry
     PV energy                 =      -0.07983163 Ry
     correction to one-el term =     188.18806343 Ry

     iteration # 27     ecut=    50.00 Ry     beta= 0.70
     Davidson diagonalization with overlap
     ethr =  2.12E-11,  avg # of iterations =  2.0

     negative rho (up, down):  1.513E-04 0.000E+00

     add environment contribution to local potential
     Polarization accuracy = 4.9E-12, # of iterations =  40

     total cpu time spent up to now is     6352.5 secs

     total energy              =   -3432.51398879 Ry
     estimated scf accuracy    <       0.00000007 Ry
     electrostatic embedding   =      -0.09157793 Ry
     cavitation energy         =       0.02077250 Ry
     PV energy                 =      -0.07983220 Ry
     correction to one-el term =     188.18807316 Ry

     iteration # 28     ecut=    50.00 Ry     beta= 0.70
     Davidson diagonalization with overlap
     ethr =  1.96E-11,  avg # of iterations =  2.0

     negative rho (up, down):  1.498E-04 0.000E+00

     add environment contribution to local potential
     Polarization accuracy = 4.7E-12, # of iterations =  41

     total cpu time spent up to now is     6622.4 secs

     total energy              =   -3432.51398927 Ry
     estimated scf accuracy    <       0.00000007 Ry
     electrostatic embedding   =      -0.09156787 Ry
     cavitation energy         =       0.02077251 Ry
     PV energy                 =      -0.07983232 Ry
     correction to one-el term =     188.18975469 Ry

     iteration # 29     ecut=    50.00 Ry     beta= 0.70
     Davidson diagonalization with overlap
     ethr =  1.79E-11,  avg # of iterations =  1.0

     negative rho (up, down):  1.519E-04 0.000E+00

     add environment contribution to local potential
     Polarization accuracy = 4.8E-12, # of iterations =  40

     total cpu time spent up to now is     6855.2 secs

     total energy              =   -3432.51398964 Ry
     estimated scf accuracy    <       0.00000006 Ry
     electrostatic embedding   =      -0.09156890 Ry
     cavitation energy         =       0.02077254 Ry
     PV energy                 =      -0.07983242 Ry
     correction to one-el term =     188.18984465 Ry

     iteration # 30     ecut=    50.00 Ry     beta= 0.70
     Davidson diagonalization with overlap
     ethr =  1.65E-11,  avg # of iterations =  3.0

     negative rho (up, down):  1.441E-04 0.000E+00

     add environment contribution to local potential
     Polarization accuracy = 4.8E-12, # of iterations =  40

     total cpu time spent up to now is     7054.1 secs

     total energy              =   -3432.51399375 Ry
     estimated scf accuracy    <       0.00000008 Ry
     electrostatic embedding   =      -0.09152929 Ry
     cavitation energy         =       0.02077260 Ry
     PV energy                 =      -0.07983250 Ry
     correction to one-el term =     188.19521221 Ry

     iteration # 31     ecut=    50.00 Ry     beta= 0.70
     Davidson diagonalization with overlap
     ethr =  1.65E-11,  avg # of iterations =  3.0

     negative rho (up, down):  1.580E-04 0.000E+00

     add environment contribution to local potential
     Polarization accuracy = 4.9E-12, # of iterations =  40

     total cpu time spent up to now is     7253.3 secs

     total energy              =   -3432.51399232 Ry
     estimated scf accuracy    <       0.00000005 Ry
     electrostatic embedding   =      -0.09156578 Ry
     cavitation energy         =       0.02077251 Ry
     PV energy                 =      -0.07983241 Ry
     correction to one-el term =     188.19091268 Ry

     iteration # 32     ecut=    50.00 Ry     beta= 0.70
     Davidson diagonalization with overlap
     ethr =  1.42E-11,  avg # of iterations = 13.0

     negative rho (up, down):  1.643E-04 0.000E+00

     add environment contribution to local potential
     Polarization accuracy = 4.8E-12, # of iterations =  40

     total cpu time spent up to now is     7460.6 secs

     total energy              =   -3432.51400278 Ry
     estimated scf accuracy    <       0.00000003 Ry
     electrostatic embedding   =      -0.09153720 Ry
     cavitation energy         =       0.02077220 Ry
     PV energy                 =      -0.07983218 Ry
     correction to one-el term =     188.19646732 Ry

     iteration # 33     ecut=    50.00 Ry     beta= 0.70
     Davidson diagonalization with overlap
     ethr =  9.15E-12,  avg # of iterations =  3.0

     negative rho (up, down):  1.549E-04 0.000E+00

     add environment contribution to local potential
     Polarization accuracy = 4.8E-12, # of iterations =  40

     total cpu time spent up to now is     7662.9 secs

     total energy              =   -3432.51400885 Ry
     estimated scf accuracy    <       0.00000003 Ry
     electrostatic embedding   =      -0.09153615 Ry
     cavitation energy         =       0.02077208 Ry
     PV energy                 =      -0.07983219 Ry
     correction to one-el term =     188.19752375 Ry

     iteration # 34     ecut=    50.00 Ry     beta= 0.70
     Davidson diagonalization with overlap
     ethr =  8.33E-12,  avg # of iterations =  2.0

     negative rho (up, down):  1.601E-04 0.000E+00

     add environment contribution to local potential
     Polarization accuracy = 4.8E-12, # of iterations =  40

     total cpu time spent up to now is     7927.3 secs

     total energy              =   -3432.51401067 Ry
     estimated scf accuracy    <          4.1E-09 Ry
     electrostatic embedding   =      -0.09155260 Ry
     cavitation energy         =       0.02077211 Ry
     PV energy                 =      -0.07983174 Ry
     correction to one-el term =     188.19410932 Ry

     iteration # 35     ecut=    50.00 Ry     beta= 0.70
     Davidson diagonalization with overlap
     ethr =  1.12E-12,  avg # of iterations =  6.0

     negative rho (up, down):  1.552E-04 0.000E+00

     add environment contribution to local potential
     Polarization accuracy = 9.2E-12, # of iterations =  39

     total cpu time spent up to now is     8169.1 secs

     total energy              =   -3432.51401387 Ry
     estimated scf accuracy    <          2.4E-09 Ry
     electrostatic embedding   =      -0.09155598 Ry
     cavitation energy         =       0.02077224 Ry
     PV energy                 =      -0.07983206 Ry
     correction to one-el term =     188.19319403 Ry

     iteration # 36     ecut=    50.00 Ry     beta= 0.70
     Davidson diagonalization with overlap
     ethr =  6.69E-13,  avg # of iterations =  2.0

     negative rho (up, down):  1.502E-04 0.000E+00

     add environment contribution to local potential
     Polarization accuracy = 4.8E-12, # of iterations =  40

     total cpu time spent up to now is     8376.2 secs

     total energy              =   -3432.51401480 Ry
     estimated scf accuracy    <          1.4E-09 Ry
     electrostatic embedding   =      -0.09155912 Ry
     cavitation energy         =       0.02077238 Ry
     PV energy                 =      -0.07983209 Ry
     correction to one-el term =     188.19205473 Ry

     iteration # 37     ecut=    50.00 Ry     beta= 0.70
     Davidson diagonalization with overlap
     ethr =  3.95E-13,  avg # of iterations =  3.0

     negative rho (up, down):  1.449E-04 0.000E+00

     the potential shift due to the Gaussian-smeared nuclei is    -1.3353 ev

     total cpu time spent up to now is     8527.8 secs

     End of self-consistent calculation

          k = 0.2500 0.2752 0.0000 ( 34780 PWs)   bands (ev):

   -78.0271 -78.0148 -78.0137 -78.0016 -77.3734 -77.3673 -77.3605 -77.3544
   -77.2100 -77.1447 -77.1417 -77.1393 -48.5280 -48.5146 -48.3722 -48.3590
   -48.0800 -48.0667 -47.9800 -47.9666 -47.7281 -47.7151 -47.7070 -47.6941
   -47.6393 -47.6261 -47.5993 -47.5859 -47.5100 -47.5072 -47.3931 -47.3767
   -47.3532 -47.3370 -47.2924 -47.2761 -47.2633 -47.2014 -47.1883 -47.1845
   -47.1778 -47.1685 -47.0602 -47.0337 -46.9802 -46.9665 -46.9508 -46.9387
   -25.9825 -25.9640 -23.9412 -23.8302 -23.6710 -23.4480 -23.3655 -23.3070
   -23.1637 -23.1220 -22.7130 -22.6950 -22.6539 -22.5311 -22.4897 -22.4674
   -22.2681 -22.2330 -22.1870 -22.1579 -22.0457 -21.9615 -21.7692 -21.6547
   -21.6244 -21.4891 -21.4161 -21.3333 -13.6170 -13.5987 -12.1145 -12.1013
   -11.9166 -11.8279 -11.6142 -11.5216 -11.4666 -11.2848 -11.1781 -11.1575
   -11.1140 -11.0954 -11.0062 -10.9678 -10.8713 -10.8497 -10.8363 -10.6267
   -10.5626 -10.4985 -10.3816 -10.3446 -10.1512 -10.0934 -10.0209  -9.9133
    -9.8678  -9.8159  -9.7204  -9.4958  -9.4664  -9.3448  -9.3155  -9.2819
    -9.1855  -9.0728  -9.0152  -9.0111  -8.9249  -8.8590  -8.8405  -8.7900
    -8.6732  -8.5869  -8.4680  -8.3265  -8.2863  -8.2079  -8.0752  -8.0269
    -7.9929  -7.9729  -7.9119  -7.9018  -7.8334  -7.8268  -7.7380  -7.6390
    -7.6230  -7.6022  -7.5386  -7.4175  -7.3942  -7.3051  -7.2034  -7.0899
    -6.9870  -6.8255  -6.8118  -6.7793  -6.7093  -6.6253  -6.5396  -6.5017
    -6.4099  -6.2972  -6.2718  -6.1537  -6.1509  -6.1170  -6.0255  -5.9111
    -5.1153  -5.1011  -4.8651  -4.7386  -4.6793  -4.6685  -4.5938  -4.5917
    -4.5172  -4.5010  -4.4588  -4.3954  -4.3480  -4.3116  -4.2435  -4.2166
    -4.1772  -4.0813  -4.0084  -3.9111  -3.9057  -3.8223  -3.7451  -3.5883
    -3.5350  -3.4324  -3.3913  -3.2967  -3.1132  -2.9717  -2.9518  -2.9392
    -2.8824  -2.8666  -2.6168  -2.5185  -2.1569  -1.8993  -1.8802  -1.6661
    -1.5022  -1.3922  -1.0270  -0.8124  -0.7102  -0.2267  -0.1614  -0.1444
    -0.0008   0.0679   0.2462   0.4146   0.4956   0.5982   0.7287   0.9381
     0.9579   1.0849

     the Fermi energy is    -3.7707 ev

!    total energy              =   -3432.51401512 Ry
     estimated scf accuracy    <          7.0E-10 Ry
     smearing contrib. (-TS)   =       0.04223146 Ry
     internal energy E=F+TS    =   -3432.55624658 Ry

     The total energy is F=E-TS. E is the sum of the following terms:
     one-electron contribution =  -25591.42777948 Ry
     hartree contribution      =   12779.27520284 Ry
     xc contribution           =    -446.43451005 Ry
     ewald contribution        =    9904.55970365 Ry
     one-center paw contrib.   =    -266.56879017 Ry
     electrostatic embedding   =      -0.09156631 Ry
     cavitation energy         =       0.02077250 Ry
     PV energy                 =      -0.07983216 Ry
     correction to one-el term =     188.19055259 Ry

     WARNING: you are using the parabolic pbc correction;
              the potential shift above must be added to 
              band and Fermi energies.

     convergence has been achieved in  37 iterations

     negative rho (up, down):  1.449E-04 0.000E+00

     Forces acting on atoms (cartesian axes, Ry/au):

     atom    1 type  1   force =     0.00000000    0.00000000    0.00112755
     atom    2 type  1   force =     0.00000000    0.00000000    0.00047935
     atom    3 type  1   force =     0.00000000    0.00000000   -0.00326214
     atom    4 type  1   force =     0.00000000    0.00000000    0.00108949
     atom    5 type  2   force =    -0.00179632   -0.00000000   -0.00004138
     atom    6 type  2   force =     0.00179632    0.00000000   -0.00004138
     atom    7 type  1   force =     0.00052567   -0.00279511   -0.00006718
     atom    8 type  1   force =    -0.00052567   -0.00279511   -0.00006718
     atom    9 type  2   force =     0.00000000    0.00000000   -0.00105691
     atom   10 type  2   force =     0.00000000    0.00000000   -0.00049368
     atom   11 type  1   force =     0.00052567    0.00279511   -0.00006718
     atom   12 type  1   force =    -0.00052567    0.00279511   -0.00006718
     atom   13 type  1   force =     0.00000000    0.00000000   -0.00006128
     atom   14 type  1   force =     0.00000000    0.00000000   -0.00003243
     atom   15 type  1   force =     0.00000000    0.00000000    0.00025889
     atom   16 type  1   force =     0.00000000    0.00000000    0.00033053
     atom   17 type  2   force =     0.00000000    0.00000000    0.00000000
     atom   18 type  2   force =     0.00000000    0.00000000    0.00000000
     atom   19 type  1   force =    -0.00000997    0.00238463    0.00000000
     atom   20 type  1   force =     0.00000997    0.00238463    0.00000000
     atom   21 type  2   force =    -0.00002054    0.00000000    0.00000000
     atom   22 type  2   force =     0.00002054    0.00000000    0.00000000
     atom   23 type  1   force =    -0.00000997   -0.00238463    0.00000000
     atom   24 type  1   force =     0.00000997   -0.00238463    0.00000000
     atom   25 type  1   force =     0.00000000    0.00000000   -0.00025889
     atom   26 type  1   force =     0.00000000    0.00000000   -0.00033053
     atom   27 type  1   force =     0.00000000    0.00000000    0.00006128
     atom   28 type  1   force =     0.00000000    0.00000000    0.00003243
     atom   29 type  2   force =    -0.00179632    0.00000000    0.00004138
     atom   30 type  2   force =     0.00179632   -0.00000000    0.00004138
     atom   31 type  1   force =     0.00052567   -0.00279511    0.00006718
     atom   32 type  1   force =    -0.00052567   -0.00279511    0.00006718
     atom   33 type  2   force =     0.00000000    0.00000000    0.00105691
     atom   34 type  2   force =     0.00000000    0.00000000    0.00049368
     atom   35 type  1   force =     0.00052567    0.00279511    0.00006718
     atom   36 type  1   force =    -0.00052567    0.00279511    0.00006718
     atom   37 type  1   force =     0.00000000    0.00000000    0.00326214
     atom   38 type  1   force =     0.00000000    0.00000000   -0.00108949
     atom   39 type  1   force =     0.00000000    0.00000000   -0.00112755
     atom   40 type  1   force =     0.00000000    0.00000000   -0.00047935
     atom   41 type  3   force =     0.00000000   -0.00364939    0.00180780
     atom   42 type  3   force =     0.00000000   -0.00364939   -0.00180780
     atom   43 type  3   force =     0.00000000    0.00364939    0.00180780
     atom   44 type  3   force =     0.00000000    0.00364939   -0.00180780
     The non-local contrib.  to forces
     atom    1 type  1   force =     0.00000000    0.00000000    1.19023697
     atom    2 type  1   force =     0.00000000    0.00000000    1.26333254
     atom    3 type  1   force =     0.00000000    0.00000000   -1.47160735
     atom    4 type  1   force =     0.00000000    0.00000000    1.19333942
     atom    5 type  2   force =    -0.01987384    0.00000000   -0.02386356
     atom    6 type  2   force =     0.01987384    0.00000000   -0.02386356
     atom    7 type  1   force =     0.02915133   -0.06139354   -0.13125371
     atom    8 type  1   force =    -0.02915133   -0.06139354   -0.13125371
     atom    9 type  2   force =     0.00000000    0.00000000   -0.04333657
     atom   10 type  2   force =     0.00000000    0.00000000   -0.04659545
     atom   11 type  1   force =     0.02915133    0.06139354   -0.13125371
     atom   12 type  1   force =    -0.02915133    0.06139354   -0.13125371
     atom   13 type  1   force =     0.00000000    0.00000000    0.14611210
     atom   14 type  1   force =     0.00000000    0.00000000   -0.21507185
     atom   15 type  1   force =     0.00000000    0.00000000    0.11364001
     atom   16 type  1   force =     0.00000000    0.00000000    0.21383461
     atom   17 type  2   force =     0.00000000    0.00000000    0.00000000
     atom   18 type  2   force =     0.00000000    0.00000000    0.00000000
     atom   19 type  1   force =     0.01333118    0.08443872    0.00000000
     atom   20 type  1   force =    -0.01333118    0.08443872   -0.00000000
     atom   21 type  2   force =    -0.00214046    0.00000000    0.00000000
     atom   22 type  2   force =     0.00214046    0.00000000    0.00000000
     atom   23 type  1   force =     0.01333118   -0.08443872   -0.00000000
     atom   24 type  1   force =    -0.01333118   -0.08443872    0.00000000
     atom   25 type  1   force =     0.00000000    0.00000000   -0.11364001
     atom   26 type  1   force =     0.00000000    0.00000000   -0.21383461
     atom   27 type  1   force =     0.00000000    0.00000000   -0.14611210
     atom   28 type  1   force =     0.00000000    0.00000000    0.21507185
     atom   29 type  2   force =    -0.01987384    0.00000000    0.02386356
     atom   30 type  2   force =     0.01987384    0.00000000    0.02386356
     atom   31 type  1   force =     0.02915133   -0.06139354    0.13125371
     atom   32 type  1   force =    -0.02915133   -0.06139354    0.13125371
     atom   33 type  2   force =     0.00000000    0.00000000    0.04333657
     atom   34 type  2   force =     0.00000000    0.00000000    0.04659545
     atom   35 type  1   force =     0.02915133    0.06139354    0.13125371
     atom   36 type  1   force =    -0.02915133    0.06139354    0.13125371
     atom   37 type  1   force =     0.00000000    0.00000000    1.47160735
     atom   38 type  1   force =     0.00000000    0.00000000   -1.19333942
     atom   39 type  1   force =     0.00000000    0.00000000   -1.19023697
     atom   40 type  1   force =     0.00000000    0.00000000   -1.26333254
     atom   41 type  3   force =     0.00000000   -0.08513667    0.06442779
     atom   42 type  3   force =     0.00000000   -0.08513667   -0.06442779
     atom   43 type  3   force =     0.00000000    0.08513667    0.06442779
     atom   44 type  3   force =     0.00000000    0.08513667   -0.06442779
     The ionic contribution  to forces
     atom    1 type  1   force =     0.00000000    0.00000017 -100.40859815
     atom    2 type  1   force =    -0.00000000    0.00000016 -101.84177602
     atom    3 type  1   force =    -0.00000000   -0.00000023  -89.19039611
     atom    4 type  1   force =    -0.00000000   -0.00000034  -95.90747370
     atom    5 type  2   force =    -6.74378332   -0.00000269 -172.50736732
     atom    6 type  2   force =     6.74378332   -0.00000269 -172.50736732
     atom    7 type  1   force =    -0.88541243   -0.49066889  -62.63964791
     atom    8 type  1   force =     0.88541243   -0.49066889  -62.63964791
     atom    9 type  2   force =     0.00000000    0.00000304 -171.37899311
     atom   10 type  2   force =     0.00000000    0.00000281 -174.98749443
     atom   11 type  1   force =    -0.88541244    0.49066960  -62.63964531
     atom   12 type  1   force =     0.88541244    0.49066960  -62.63964531
     atom   13 type  1   force =    -0.00000000   -0.00000221  -40.72521944
     atom   14 type  1   force =    -0.00000000   -0.00000222  -36.93214581
     atom   15 type  1   force =     0.00000000    0.00000981  -26.38786469
     atom   16 type  1   force =     0.00000000    0.00000958  -27.26091729
     atom   17 type  2   force =    -0.00000000    0.00000861   -0.00042382
     atom   18 type  2   force =    -0.00000000    0.00000788   -0.00046133
     atom   19 type  1   force =    -0.31003666    0.73729458   -0.00008045
     atom   20 type  1   force =     0.31003666    0.73729458   -0.00008045
     atom   21 type  2   force =    -0.47334019    0.00011471   -0.00023897
     atom   22 type  2   force =     0.47334019    0.00011471   -0.00023897
     atom   23 type  1   force =    -0.31003573   -0.73743412   -0.00008045
     atom   24 type  1   force =     0.31003573   -0.73743412   -0.00008045
     atom   25 type  1   force =    -0.00000000    0.00000981   26.38765637
     atom   26 type  1   force =     0.00000000    0.00000958   27.26072253
     atom   27 type  1   force =     0.00000000   -0.00000221   40.72550076
     atom   28 type  1   force =     0.00000000   -0.00000222   36.93246705
     atom   29 type  2   force =    -6.74366843   -0.00000269  172.50765437
     atom   30 type  2   force =     6.74366843   -0.00000269  172.50765437
     atom   31 type  1   force =    -0.88540741   -0.49069369   62.63971983
     atom   32 type  1   force =     0.88540741   -0.49069369   62.63971983
     atom   33 type  2   force =     0.00000000    0.00000304  171.37914694
     atom   34 type  2   force =    -0.00000000    0.00000281  174.98764350
     atom   35 type  1   force =    -0.88540741    0.49069440   62.63971724
     atom   36 type  1   force =     0.88540741    0.49069440   62.63971724
     atom   37 type  1   force =     0.00000000   -0.00000023   89.19037932
     atom   38 type  1   force =    -0.00000000   -0.00000034   95.90758150
     atom   39 type  1   force =     0.00000000    0.00000017  100.40866189
     atom   40 type  1   force =     0.00000000    0.00000016  101.84183444
     atom   41 type  3   force =     0.00000000    2.25356921  -17.07989206
     atom   42 type  3   force =    -0.00000000    2.25378594   17.07994584
     atom   43 type  3   force =    -0.00000000   -2.25356924  -17.07989203
     atom   44 type  3   force =     0.00000000   -2.25378596   17.07994581
     The local contribution  to forces
     atom    1 type  1   force =    -0.00000000    0.00000000   99.19666172
     atom    2 type  1   force =     0.00000000    0.00000000  100.47592716
     atom    3 type  1   force =     0.00000000    0.00000000   90.82642177
     atom    4 type  1   force =     0.00000000    0.00000000   94.66071917
     atom    5 type  2   force =     6.84368906   -0.00000000  172.55879184
     atom    6 type  2   force =    -6.84368906    0.00000000  172.55879184
     atom    7 type  1   force =     0.88138380    0.56236531   62.76320265
     atom    8 type  1   force =    -0.88138380    0.56236531   62.76320265
     atom    9 type  2   force =    -0.00000000    0.00000000  171.43258178
     atom   10 type  2   force =     0.00000000    0.00000000  174.93287992
     atom   11 type  1   force =     0.88138380   -0.56236531   62.76320265
     atom   12 type  1   force =    -0.88138380   -0.56236531   62.76320265
     atom   13 type  1   force =     0.00000000    0.00000000   40.59330404
     atom   14 type  1   force =     0.00000000   -0.00000000   37.13848926
     atom   15 type  1   force =    -0.00000000    0.00000000   26.27669330
     atom   16 type  1   force =     0.00000000    0.00000000   27.04389785
     atom   17 type  2   force =    -0.00000000    0.00000000   -0.00591156
     atom   18 type  2   force =     0.00000000    0.00000000   -0.00582344
     atom   19 type  1   force =     0.29950566   -0.81829630   -0.00246902
     atom   20 type  1   force =    -0.29950566   -0.81829630   -0.00246902
     atom   21 type  2   force =     0.48205967   -0.00000000   -0.00606872
     atom   22 type  2   force =    -0.48205967   -0.00000000   -0.00606872
     atom   23 type  1   force =     0.29950475    0.81794767   -0.00246902
     atom   24 type  1   force =    -0.29950475    0.81794767   -0.00246902
     atom   25 type  1   force =     0.00000000    0.00000000  -26.27848423
     atom   26 type  1   force =    -0.00000000   -0.00000000  -27.04570278
     atom   27 type  1   force =    -0.00000000   -0.00000000  -40.59512510
     atom   28 type  1   force =     0.00000000   -0.00000000  -37.14023058
     atom   29 type  2   force =     6.84372150   -0.00000000 -172.56487143
     atom   30 type  2   force =    -6.84372150    0.00000000 -172.56487143
     atom   31 type  1   force =     0.88139298    0.56239539  -62.76565853
     atom   32 type  1   force =    -0.88139298    0.56239539  -62.76565853
     atom   33 type  2   force =    -0.00000000    0.00000000 -171.43834524
     atom   34 type  2   force =     0.00000000    0.00000000 -174.93867594
     atom   35 type  1   force =     0.88139298   -0.56239539  -62.76565853
     atom   36 type  1   force =    -0.88139298   -0.56239539  -62.76565853
     atom   37 type  1   force =     0.00000000    0.00000000  -90.83011768
     atom   38 type  1   force =     0.00000000   -0.00000000  -94.66452654
     atom   39 type  1   force =    -0.00000000    0.00000000  -99.19809173
     atom   40 type  1   force =     0.00000000    0.00000000 -100.47730502
     atom   41 type  3   force =    -0.00000000   -2.15994876   17.06734179
     atom   42 type  3   force =    -0.00000000   -2.15994876  -17.06734179
     atom   43 type  3   force =     0.00000000    2.15994876   17.06734179
     atom   44 type  3   force =     0.00000000    2.15994876  -17.06734179
     The core correction contribution to forces
     atom    1 type  1   force =    -0.00000000   -0.00000000   -0.01056667
     atom    2 type  1   force =     0.00000000   -0.00000000   -0.01070225
     atom    3 type  1   force =     0.00000000   -0.00000000    0.01375190
     atom    4 type  1   force =     0.00000000    0.00000000   -0.01217160
     atom    5 type  2   force =     0.00000000    0.00000000    0.00000000
     atom    6 type  2   force =     0.00000000    0.00000000    0.00000000
     atom    7 type  1   force =    -0.00028936   -0.00003274    0.00135015
     atom    8 type  1   force =     0.00028936   -0.00003274    0.00135015
     atom    9 type  2   force =     0.00000000    0.00000000    0.00000000
     atom   10 type  2   force =     0.00000000    0.00000000    0.00000000
     atom   11 type  1   force =    -0.00028936    0.00003274    0.00135015
     atom   12 type  1   force =     0.00028936    0.00003274    0.00135015
     atom   13 type  1   force =    -0.00000000   -0.00000000   -0.00154077
     atom   14 type  1   force =     0.00000000    0.00000000    0.00243237
     atom   15 type  1   force =    -0.00000000    0.00000000   -0.00158086
     atom   16 type  1   force =     0.00000000   -0.00000000   -0.00248253
     atom   17 type  2   force =     0.00000000    0.00000000    0.00000000
     atom   18 type  2   force =     0.00000000    0.00000000    0.00000000
     atom   19 type  1   force =    -0.00019266   -0.00037075   -0.00000205
     atom   20 type  1   force =     0.00019266   -0.00037075   -0.00000205
     atom   21 type  2   force =     0.00000000    0.00000000    0.00000000
     atom   22 type  2   force =     0.00000000    0.00000000    0.00000000
     atom   23 type  1   force =    -0.00019267    0.00037024   -0.00000205
     atom   24 type  1   force =     0.00019267    0.00037024   -0.00000205
     atom   25 type  1   force =     0.00000000   -0.00000000    0.00157881
     atom   26 type  1   force =    -0.00000000   -0.00000000    0.00248043
     atom   27 type  1   force =    -0.00000000   -0.00000000    0.00153850
     atom   28 type  1   force =     0.00000000    0.00000000   -0.00243468
     atom   29 type  2   force =     0.00000000    0.00000000    0.00000000
     atom   30 type  2   force =     0.00000000    0.00000000    0.00000000
     atom   31 type  1   force =    -0.00028928   -0.00003269   -0.00135171
     atom   32 type  1   force =     0.00028928   -0.00003269   -0.00135171
     atom   33 type  2   force =     0.00000000    0.00000000    0.00000000
     atom   34 type  2   force =     0.00000000    0.00000000    0.00000000
     atom   35 type  1   force =    -0.00028928    0.00003269   -0.00135171
     atom   36 type  1   force =     0.00028928    0.00003269   -0.00135171
     atom   37 type  1   force =     0.00000000    0.00000000   -0.01375558
     atom   38 type  1   force =     0.00000000   -0.00000000    0.01216786
     atom   39 type  1   force =     0.00000000    0.00000000    0.01056464
     atom   40 type  1   force =     0.00000000    0.00000000    0.01070041
     atom   41 type  3   force =     0.00000000    0.00000000    0.00000000
     atom   42 type  3   force =     0.00000000    0.00000000    0.00000000
     atom   43 type  3   force =     0.00000000    0.00000000    0.00000000
     atom   44 type  3   force =     0.00000000    0.00000000    0.00000000
     The Hubbard contrib.    to forces
     atom    1 type  1   force =     0.00000000    0.00000000    0.00000000
     atom    2 type  1   force =     0.00000000    0.00000000    0.00000000
     atom    3 type  1   force =     0.00000000    0.00000000    0.00000000
     atom    4 type  1   force =     0.00000000    0.00000000    0.00000000
     atom    5 type  2   force =     0.00000000    0.00000000    0.00000000
     atom    6 type  2   force =     0.00000000    0.00000000    0.00000000
     atom    7 type  1   force =     0.00000000    0.00000000    0.00000000
     atom    8 type  1   force =     0.00000000    0.00000000    0.00000000
     atom    9 type  2   force =     0.00000000    0.00000000    0.00000000
     atom   10 type  2   force =     0.00000000    0.00000000    0.00000000
     atom   11 type  1   force =     0.00000000    0.00000000    0.00000000
     atom   12 type  1   force =     0.00000000    0.00000000    0.00000000
     atom   13 type  1   force =     0.00000000    0.00000000    0.00000000
     atom   14 type  1   force =     0.00000000    0.00000000    0.00000000
     atom   15 type  1   force =     0.00000000    0.00000000    0.00000000
     atom   16 type  1   force =     0.00000000    0.00000000    0.00000000
     atom   17 type  2   force =     0.00000000    0.00000000    0.00000000
     atom   18 type  2   force =     0.00000000    0.00000000    0.00000000
     atom   19 type  1   force =     0.00000000    0.00000000    0.00000000
     atom   20 type  1   force =     0.00000000    0.00000000    0.00000000
     atom   21 type  2   force =     0.00000000    0.00000000    0.00000000
     atom   22 type  2   force =     0.00000000    0.00000000    0.00000000
     atom   23 type  1   force =     0.00000000    0.00000000    0.00000000
     atom   24 type  1   force =     0.00000000    0.00000000    0.00000000
     atom   25 type  1   force =     0.00000000    0.00000000    0.00000000
     atom   26 type  1   force =     0.00000000    0.00000000    0.00000000
     atom   27 type  1   force =     0.00000000    0.00000000    0.00000000
     atom   28 type  1   force =     0.00000000    0.00000000    0.00000000
     atom   29 type  2   force =     0.00000000    0.00000000    0.00000000
     atom   30 type  2   force =     0.00000000    0.00000000    0.00000000
     atom   31 type  1   force =     0.00000000    0.00000000    0.00000000
     atom   32 type  1   force =     0.00000000    0.00000000    0.00000000
     atom   33 type  2   force =     0.00000000    0.00000000    0.00000000
     atom   34 type  2   force =     0.00000000    0.00000000    0.00000000
     atom   35 type  1   force =     0.00000000    0.00000000    0.00000000
     atom   36 type  1   force =     0.00000000    0.00000000    0.00000000
     atom   37 type  1   force =     0.00000000    0.00000000    0.00000000
     atom   38 type  1   force =     0.00000000    0.00000000    0.00000000
     atom   39 type  1   force =     0.00000000    0.00000000    0.00000000
     atom   40 type  1   force =     0.00000000    0.00000000    0.00000000
     atom   41 type  3   force =     0.00000000    0.00000000    0.00000000
     atom   42 type  3   force =     0.00000000    0.00000000    0.00000000
     atom   43 type  3   force =     0.00000000    0.00000000    0.00000000
     atom   44 type  3   force =     0.00000000    0.00000000    0.00000000
     The SCF correction term to forces
     atom    1 type  1   force =    -0.00000000   -0.00000002    0.00000632
     atom    2 type  1   force =     0.00000000   -0.00000002    0.00000177
     atom    3 type  1   force =    -0.00000000    0.00000002    0.00000037
     atom    4 type  1   force =     0.00000000    0.00000003   -0.00000196
     atom    5 type  2   force =    -0.00001485    0.00000012   -0.00002919
     atom    6 type  2   force =     0.00001485    0.00000012   -0.00002919
     atom    7 type  1   force =    -0.00001315    0.00000070   -0.00000839
     atom    8 type  1   force =     0.00001315    0.00000070   -0.00000839
     atom    9 type  2   force =    -0.00000000   -0.00000011   -0.00003717
     atom   10 type  2   force =     0.00000000   -0.00000011    0.00000862
     atom   11 type  1   force =    -0.00001315   -0.00000073   -0.00000841
     atom   12 type  1   force =     0.00001315   -0.00000073   -0.00000841
     atom   13 type  1   force =    -0.00000000    0.00000006   -0.00001689
     atom   14 type  1   force =     0.00000000    0.00000006   -0.00000679
     atom   15 type  1   force =    -0.00000000   -0.00000007   -0.00001098
     atom   16 type  1   force =     0.00000000   -0.00000007   -0.00000107
     atom   17 type  2   force =     0.00000000    0.00000022    0.00001275
     atom   18 type  2   force =    -0.00000000    0.00000022    0.00001296
     atom   19 type  1   force =     0.00000379    0.00000178    0.00000468
     atom   20 type  1   force =    -0.00000379    0.00000178    0.00000468
     atom   21 type  2   force =     0.00000121   -0.00000022    0.00001256
     atom   22 type  2   force =    -0.00000121   -0.00000022    0.00001256
     atom   23 type  1   force =     0.00000379   -0.00000171    0.00000468
     atom   24 type  1   force =    -0.00000379   -0.00000171    0.00000468
     atom   25 type  1   force =    -0.00000000   -0.00000007    0.00001752
     atom   26 type  1   force =    -0.00000000   -0.00000007    0.00000770
     atom   27 type  1   force =    -0.00000000    0.00000006    0.00002001
     atom   28 type  1   force =     0.00000000    0.00000006    0.00001017
     atom   29 type  2   force =    -0.00001455    0.00000012    0.00002297
     atom   30 type  2   force =     0.00001455    0.00000012    0.00002297
     atom   31 type  1   force =    -0.00001296    0.00000038    0.00000627
     atom   32 type  1   force =     0.00001296    0.00000038    0.00000627
     atom   33 type  2   force =    -0.00000000   -0.00000011    0.00002995
     atom   34 type  2   force =     0.00000000   -0.00000011   -0.00001619
     atom   35 type  1   force =    -0.00001296   -0.00000041    0.00000629
     atom   36 type  1   force =     0.00001296   -0.00000041    0.00000629
     atom   37 type  1   force =    -0.00000000    0.00000002   -0.00000421
     atom   38 type  1   force =     0.00000000    0.00000003   -0.00000215
     atom   39 type  1   force =    -0.00000000   -0.00000002   -0.00000944
     atom   40 type  1   force =     0.00000000   -0.00000002   -0.00000502
     atom   41 type  3   force =    -0.00000000    0.00000003    0.00000134
     atom   42 type  3   force =    -0.00000000    0.00000004   -0.00000176
     atom   43 type  3   force =    -0.00000000   -0.00000003    0.00000133
     atom   44 type  3   force =    -0.00000000   -0.00000004   -0.00000176

     Total force =     0.014018     Total SCF correction =     0.000102

     BFGS Geometry Optimization
     Energy error            =      0.0E+00 Ry
     Gradient error          =      3.6E-03 Ry/Bohr

     number of scf cycles    =   1
     number of bfgs steps    =   0

     energy             new  =   -3432.5140151231 Ry

     new trust radius        =       0.0040726166 bohr
     new conv_thr            =       0.0000000010 Ry


ATOMIC_POSITIONS (crystal)
O             0.0000000000        0.5000000000        0.2744663902
O             0.5000000000        0.5000000000        0.2732796408
O             0.0000000000        0.0000000000        0.2907671563
O             0.5000000000        0.0000000000        0.3071089771
Ru            0.2636092297       -0.0000000000        0.3582889823
Ru            0.7363907703        0.0000000000        0.3582889823
O             0.2498076242        0.3123058961        0.3590702518
O             0.7501923758        0.3123058961        0.3590702518
Ru            0.0000000000        0.5000000000        0.3543145583
Ru            0.5000000000        0.5000000000        0.3512971906
O             0.2498076242        0.6876941039        0.3590702518
O             0.7501923758        0.6876941039        0.3590702518
O             0.0000000000        0.0000000000        0.4109304921
O             0.5000000000        0.0000000000        0.4121234876
O             0.0000000000        0.5000000000        0.4454469928
O             0.5000000000        0.5000000000        0.4449111745
Ru            0.0000000000        0.0000000000        0.5000010000
Ru            0.5000000000        0.0000000000        0.5000010000
O             0.2491156626        0.1863290047        0.5000010000
O             0.7508843374        0.1863290047        0.5000010000
Ru            0.2515119118        0.5000000000        0.5000010000
Ru            0.7484880882        0.5000000000        0.5000010000
O             0.2491156626        0.8136719953        0.5000010000
O             0.7508843374        0.8136719953        0.5000010000
O             0.0000000000        0.5000000000        0.5545540072
O             0.5000000000        0.5000000000        0.5550898255
O             0.0000000000        0.0000000000        0.5890705079
O             0.5000000000        0.0000000000        0.5878775124
Ru            0.2636092297        0.0000000000        0.6417120177
Ru            0.7363907703       -0.0000000000        0.6417120177
O             0.2498076242        0.3123058961        0.6409307482
O             0.7501923758        0.3123058961        0.6409307482
Ru            0.0000000000        0.5000000000        0.6456864417
Ru            0.5000000000        0.5000000000        0.6487038094
O             0.2498076242        0.6876941039        0.6409307482
O             0.7501923758        0.6876941039        0.6409307482
O             0.0000000000        0.0000000000        0.7092348437
O             0.5000000000        0.0000000000        0.6928930229
O             0.0000000000        0.5000000000        0.7255346098
O             0.5000000000        0.5000000000        0.7267213592
H             0.0000000000        0.1325508637        0.2638518712
H             0.0000000000        0.1325508637        0.7361481288
H             0.0000000000        0.8674491363        0.2638518712
H             0.0000000000        0.8674491363        0.7361481288



     Writing config-only to output data dir /storage/home/mgm6007/ixd4/Maria/StrainJin_Files/RuO2-110-0-24/RuO2-110-0-24.save/
     NEW-OLD atomic charge density approx. for the potential

     Check: negative core charge=   -0.000001

     negative rho (up, down):  1.450E-04 0.000E+00

     add environment contribution to local potential
     Polarization accuracy = 5.4E-12, # of iterations =  40

     total cpu time spent up to now is     8772.1 secs

     per-process dynamical memory:   202.4 Mb

     Self-consistent Calculation

     iteration #  1     ecut=    50.00 Ry     beta= 0.70
     Davidson diagonalization with overlap
     ethr =  1.00E-06,  avg # of iterations =  3.0

     Threshold (ethr) on eigenvalues was too large:
     Diagonalizing with lowered threshold

     Davidson diagonalization with overlap
     ethr =  3.19E-08,  avg # of iterations =  2.0

     negative rho (up, down):  1.272E-04 0.000E+00

     add environment contribution to local potential
     Polarization accuracy = 4.9E-12, # of iterations =  40

     total cpu time spent up to now is     9014.1 secs

     total energy              =   -3432.51409019 Ry
     estimated scf accuracy    <       0.00011872 Ry
     electrostatic embedding   =      -0.09184942 Ry
     cavitation energy         =       0.02077765 Ry
     PV energy                 =      -0.07982198 Ry
     correction to one-el term =     188.15660232 Ry

     iteration #  2     ecut=    50.00 Ry     beta= 0.70
     Davidson diagonalization with overlap
     ethr =  3.26E-08,  avg # of iterations =  2.0

     negative rho (up, down):  1.280E-04 0.000E+00

     add environment contribution to local potential
     Polarization accuracy = 4.9E-12, # of iterations =  40

     total cpu time spent up to now is     9267.9 secs

     total energy              =   -3432.51409177 Ry
     estimated scf accuracy    <       0.00024830 Ry
     electrostatic embedding   =      -0.09180936 Ry
     cavitation energy         =       0.02077313 Ry
     PV energy                 =      -0.07982772 Ry
     correction to one-el term =     188.14440972 Ry

     iteration #  3     ecut=    50.00 Ry     beta= 0.70
     Davidson diagonalization with overlap
     ethr =  3.26E-08,  avg # of iterations =  1.0

     negative rho (up, down):  1.222E-04 0.000E+00

     add environment contribution to local potential
     Polarization accuracy = 4.9E-12, # of iterations =  40

     total cpu time spent up to now is     9504.1 secs

     total energy              =   -3432.51410287 Ry
     estimated scf accuracy    <       0.00001471 Ry
     electrostatic embedding   =      -0.09180672 Ry
     cavitation energy         =       0.02077335 Ry
     PV energy                 =      -0.07982642 Ry
     correction to one-el term =     188.14581995 Ry

     iteration #  4     ecut=    50.00 Ry     beta= 0.70
     Davidson diagonalization with overlap
     ethr =  4.04E-09,  avg # of iterations =  2.0

     negative rho (up, down):  1.206E-04 0.000E+00

     add environment contribution to local potential
     Polarization accuracy = 4.9E-12, # of iterations =  40

     total cpu time spent up to now is     9756.5 secs

     total energy              =   -3432.51410283 Ry
     estimated scf accuracy    <       0.00000419 Ry
     electrostatic embedding   =      -0.09177827 Ry
     cavitation energy         =       0.02077305 Ry
     PV energy                 =      -0.07982618 Ry
     correction to one-el term =     188.14140274 Ry

     iteration #  5     ecut=    50.00 Ry     beta= 0.70
     Davidson diagonalization with overlap
     ethr =  1.15E-09,  avg # of iterations =  2.0

     negative rho (up, down):  1.210E-04 0.000E+00

     add environment contribution to local potential
     Polarization accuracy = 4.9E-12, # of iterations =  40

     total cpu time spent up to now is     9987.0 secs

     total energy              =   -3432.51410282 Ry
     estimated scf accuracy    <       0.00000134 Ry
     electrostatic embedding   =      -0.09175629 Ry
     cavitation energy         =       0.02077303 Ry
     PV energy                 =      -0.07982578 Ry
     correction to one-el term =     188.13997273 Ry

     iteration #  6     ecut=    50.00 Ry     beta= 0.70
     Davidson diagonalization with overlap
     ethr =  3.67E-10,  avg # of iterations =  2.0

     negative rho (up, down):  1.231E-04 0.000E+00

     add environment contribution to local potential
     Polarization accuracy = 5.0E-12, # of iterations =  40

     total cpu time spent up to now is    10203.2 secs

     total energy              =   -3432.51410275 Ry
     estimated scf accuracy    <       0.00000027 Ry
     electrostatic embedding   =      -0.09173265 Ry
     cavitation energy         =       0.02077316 Ry
     PV energy                 =      -0.07982528 Ry
     correction to one-el term =     188.14028589 Ry

     iteration #  7     ecut=    50.00 Ry     beta= 0.70
     Davidson diagonalization with overlap
     ethr =  7.50E-11,  avg # of iterations =  2.0

     negative rho (up, down):  1.247E-04 0.000E+00

     add environment contribution to local potential
     Polarization accuracy = 5.0E-12, # of iterations =  40

     total cpu time spent up to now is    10429.4 secs

     total energy              =   -3432.51410272 Ry
     estimated scf accuracy    <       0.00000012 Ry
     electrostatic embedding   =      -0.09171378 Ry
     cavitation energy         =       0.02077328 Ry
     PV energy                 =      -0.07982487 Ry
     correction to one-el term =     188.14175816 Ry

     iteration #  8     ecut=    50.00 Ry     beta= 0.70
     Davidson diagonalization with overlap
     ethr =  3.28E-11,  avg # of iterations =  2.0

     negative rho (up, down):  1.305E-04 0.000E+00

     add environment contribution to local potential
     Polarization accuracy = 5.0E-12, # of iterations =  40

     total cpu time spent up to now is    10575.9 secs

     total energy              =   -3432.51410271 Ry
     estimated scf accuracy    <       0.00000001 Ry
     electrostatic embedding   =      -0.09170285 Ry
     cavitation energy         =       0.02077332 Ry
     PV energy                 =      -0.07982473 Ry
     correction to one-el term =     188.14278203 Ry

     iteration #  9     ecut=    50.00 Ry     beta= 0.70
     Davidson diagonalization with overlap
     ethr =  4.06E-12,  avg # of iterations =  6.0

     negative rho (up, down):  1.341E-04 0.000E+00

     add environment contribution to local potential
     Polarization accuracy = 5.0E-12, # of iterations =  40

     total cpu time spent up to now is    10788.1 secs

     total energy              =   -3432.51410285 Ry
     estimated scf accuracy    <       0.00000001 Ry
     electrostatic embedding   =      -0.09167387 Ry
     cavitation energy         =       0.02077337 Ry
     PV energy                 =      -0.07982445 Ry
     correction to one-el term =     188.14631826 Ry

     iteration # 10     ecut=    50.00 Ry     beta= 0.70
     Davidson diagonalization with overlap
     ethr =  3.56E-12,  avg # of iterations =  3.0

     negative rho (up, down):  1.382E-04 0.000E+00

     add environment contribution to local potential
     Polarization accuracy = 5.0E-12, # of iterations =  40

     total cpu time spent up to now is    11022.6 secs

     total energy              =   -3432.51410291 Ry
     estimated scf accuracy    <          4.6E-09 Ry
     electrostatic embedding   =      -0.09165812 Ry
     cavitation energy         =       0.02077335 Ry
     PV energy                 =      -0.07982437 Ry
     correction to one-el term =     188.14833715 Ry

     iteration # 11     ecut=    50.00 Ry     beta= 0.70
     Davidson diagonalization with overlap
     ethr =  1.27E-12,  avg # of iterations =  3.0

     negative rho (up, down):  1.412E-04 0.000E+00

     add environment contribution to local potential
     Polarization accuracy = 4.9E-12, # of iterations =  40

     total cpu time spent up to now is    11300.8 secs

     total energy              =   -3432.51410295 Ry
     estimated scf accuracy    <          3.8E-09 Ry
     electrostatic embedding   =      -0.09164259 Ry
     cavitation energy         =       0.02077331 Ry
     PV energy                 =      -0.07982436 Ry
     correction to one-el term =     188.15037795 Ry

     iteration # 12     ecut=    50.00 Ry     beta= 0.70
     Davidson diagonalization with overlap
     ethr =  1.05E-12,  avg # of iterations =  2.0

     negative rho (up, down):  1.450E-04 0.000E+00

     the potential shift due to the Gaussian-smeared nuclei is    -1.3353 ev

     total cpu time spent up to now is    11506.6 secs

     End of self-consistent calculation

          k = 0.2500 0.2752 0.0000 ( 34780 PWs)   bands (ev):

   -78.0235 -78.0127 -78.0099 -77.9994 -77.3733 -77.3673 -77.3603 -77.3543
   -77.2025 -77.1426 -77.1388 -77.1366 -48.5258 -48.5123 -48.3721 -48.3587
   -48.0752 -48.0617 -47.9749 -47.9614 -47.7302 -47.7171 -47.7096 -47.6965
   -47.6381 -47.6248 -47.5963 -47.5827 -47.5118 -47.5088 -47.3910 -47.3750
   -47.3479 -47.3316 -47.2834 -47.2754 -47.2625 -47.2012 -47.1877 -47.1833
   -47.1726 -47.1661 -47.0581 -47.0273 -46.9787 -46.9609 -46.9498 -46.9377
   -26.0153 -25.9966 -23.9366 -23.8262 -23.6650 -23.4439 -23.3650 -23.3041
   -23.1612 -23.1149 -22.7108 -22.6929 -22.6515 -22.5273 -22.4907 -22.4665
   -22.2674 -22.2308 -22.1858 -22.1553 -22.0436 -21.9595 -21.7652 -21.6533
   -21.6216 -21.4878 -21.4209 -21.3360 -13.6532 -13.6347 -12.1128 -12.0994
   -11.9130 -11.8276 -11.6187 -11.5213 -11.4675 -11.2830 -11.1767 -11.1553
   -11.1103 -11.0917 -11.0029 -10.9664 -10.8693 -10.8459 -10.8296 -10.6235
   -10.5595 -10.4964 -10.3797 -10.3421 -10.1492 -10.0898 -10.0190  -9.9117
    -9.8643  -9.8156  -9.7221  -9.4923  -9.4670  -9.3443  -9.3137  -9.2790
    -9.1851  -9.0719  -9.0140  -9.0107  -8.9272  -8.8589  -8.8390  -8.7908
    -8.6734  -8.5847  -8.4683  -8.3274  -8.2881  -8.2082  -8.0764  -8.0283
    -7.9948  -7.9711  -7.9124  -7.9043  -7.8343  -7.8259  -7.7397  -7.6427
    -7.6243  -7.5990  -7.5412  -7.4166  -7.3930  -7.3026  -7.2002  -7.0886
    -6.9864  -6.8203  -6.8117  -6.7761  -6.7061  -6.6207  -6.5391  -6.5010
    -6.4070  -6.2975  -6.2706  -6.1517  -6.1490  -6.1169  -6.0236  -5.9084
    -5.1116  -5.0975  -4.8613  -4.7406  -4.6755  -4.6663  -4.5898  -4.5853
    -4.5164  -4.5002  -4.4591  -4.3922  -4.3450  -4.3095  -4.2393  -4.2130
    -4.1730  -4.0785  -4.0052  -3.9087  -3.9033  -3.8197  -3.7417  -3.5848
    -3.5319  -3.4290  -3.3892  -3.2951  -3.1083  -2.9687  -2.9481  -2.9369
    -2.8790  -2.8632  -2.6125  -2.5144  -2.1590  -1.8998  -1.8803  -1.6685
    -1.4992  -1.3888  -1.0277  -0.8081  -0.7108  -0.2229  -0.1662  -0.1482
     0.0018   0.0706   0.2482   0.4153   0.4962   0.6035   0.7318   0.9436
     0.9683   1.0953

     the Fermi energy is    -3.7676 ev

!    total energy              =   -3432.51410297 Ry
     estimated scf accuracy    <          9.7E-10 Ry
     smearing contrib. (-TS)   =       0.04203854 Ry
     internal energy E=F+TS    =   -3432.55614151 Ry

     The total energy is F=E-TS. E is the sum of the following terms:
     one-electron contribution =  -25590.31340863 Ry
     hartree contribution      =   12778.73918733 Ry
     xc contribution           =    -446.44758771 Ry
     ewald contribution        =    9904.03267488 Ry
     one-center paw contrib.   =    -266.56807032 Ry
     electrostatic embedding   =      -0.09163346 Ry
     cavitation energy         =       0.02077325 Ry
     PV energy                 =      -0.07982442 Ry
     correction to one-el term =     188.15174758 Ry

     WARNING: you are using the parabolic pbc correction;
              the potential shift above must be added to 
              band and Fermi energies.

     convergence has been achieved in  12 iterations

     negative rho (up, down):  1.450E-04 0.000E+00

     Forces acting on atoms (cartesian axes, Ry/au):

     atom    1 type  1   force =     0.00000000    0.00000000    0.00010409
     atom    2 type  1   force =     0.00000000    0.00000000   -0.00017845
     atom    3 type  1   force =     0.00000000    0.00000000    0.00293909
     atom    4 type  1   force =     0.00000000    0.00000000    0.00059911
     atom    5 type  2   force =    -0.00032445    0.00000000    0.00013933
     atom    6 type  2   force =     0.00032445   -0.00000000    0.00013933
     atom    7 type  1   force =     0.00018355   -0.00026132   -0.00023137
     atom    8 type  1   force =    -0.00018355   -0.00026132   -0.00023137
     atom    9 type  2   force =     0.00000000    0.00000000    0.00053696
     atom   10 type  2   force =     0.00000000    0.00000000    0.00053876
     atom   11 type  1   force =     0.00018355    0.00026132   -0.00023137
     atom   12 type  1   force =    -0.00018355    0.00026132   -0.00023137
     atom   13 type  1   force =     0.00000000    0.00000000    0.00012736
     atom   14 type  1   force =     0.00000000    0.00000000    0.00031528
     atom   15 type  1   force =     0.00000000    0.00000000   -0.00017860
     atom   16 type  1   force =     0.00000000    0.00000000    0.00006733
     atom   17 type  2   force =     0.00000000    0.00000000    0.00000000
     atom   18 type  2   force =     0.00000000    0.00000000    0.00000000
     atom   19 type  1   force =    -0.00002500    0.00036554    0.00000000
     atom   20 type  1   force =     0.00002500    0.00036554    0.00000000
     atom   21 type  2   force =     0.00002081    0.00000000    0.00000000
     atom   22 type  2   force =    -0.00002081    0.00000000    0.00000000
     atom   23 type  1   force =    -0.00002500   -0.00036554    0.00000000
     atom   24 type  1   force =     0.00002500   -0.00036554    0.00000000
     atom   25 type  1   force =     0.00000000    0.00000000    0.00017860
[...]
     atom   40 type  1   force =     0.00000000    0.00000016  101.85803928
     atom   41 type  3   force =    -0.00000000    2.26827954  -17.09982359
     atom   42 type  3   force =    -0.00000000    2.26849830   17.09987870
     atom   43 type  3   force =     0.00000000   -2.26827957  -17.09982356
     atom   44 type  3   force =     0.00000000   -2.26849833   17.09987867
     The local contribution  to forces
     atom    1 type  1   force =    -0.00000000    0.00000000   99.23132218
     atom    2 type  1   force =     0.00000000    0.00000000  100.49185835
     atom    3 type  1   force =     0.00000000   -0.00000000   90.83050571
     atom    4 type  1   force =     0.00000000    0.00000000   94.64286155
     atom    5 type  2   force =     6.79675517   -0.00000000  172.52975244
     atom    6 type  2   force =    -6.79675517   -0.00000000  172.52975244
     atom    7 type  1   force =     0.88295236    0.50797399   62.80134154
     atom    8 type  1   force =    -0.88295236    0.50797399   62.80134154
     atom    9 type  2   force =    -0.00000000    0.00000000  171.44580778
     atom   10 type  2   force =     0.00000000    0.00000000  174.95735040
     atom   11 type  1   force =     0.88295236   -0.50797399   62.80134154
     atom   12 type  1   force =    -0.88295236   -0.50797399   62.80134154
     atom   13 type  1   force =    -0.00000000    0.00000000   40.57786338
     atom   14 type  1   force =    -0.00000000    0.00000000   37.15689683
     atom   15 type  1   force =     0.00000000    0.00000000   26.28982623
     atom   16 type  1   force =     0.00000000    0.00000000   27.06098864
     atom   17 type  2   force =    -0.00000000    0.00000000   -0.00591015
     atom   18 type  2   force =     0.00000000    0.00000000   -0.00582190
     atom   19 type  1   force =     0.29797153   -0.77829218   -0.00246906
     atom   20 type  1   force =    -0.29797153   -0.77829218   -0.00246906
     atom   21 type  2   force =     0.49466765   -0.00000000   -0.00607020
     atom   22 type  2   force =    -0.49466765   -0.00000000   -0.00607020
     atom   23 type  1   force =     0.29797059    0.77794383   -0.00246906
     atom   24 type  1   force =    -0.29797059    0.77794383   -0.00246906
     atom   25 type  1   force =    -0.00000000    0.00000000  -26.29161718
     atom   26 type  1   force =     0.00000000    0.00000000  -27.06279394
     atom   27 type  1   force =     0.00000000    0.00000000  -40.57968438
     atom   28 type  1   force =     0.00000000    0.00000000  -37.15863799
     atom   29 type  2   force =     6.79678800    0.00000000 -172.53583372
     atom   30 type  2   force =    -6.79678800   -0.00000000 -172.53583372
     atom   31 type  1   force =     0.88296154    0.50800448  -62.80379770
     atom   32 type  1   force =    -0.88296154    0.50800448  -62.80379770
     atom   33 type  2   force =    -0.00000000    0.00000000 -171.45156936
     atom   34 type  2   force =     0.00000000    0.00000000 -174.96314612
     atom   35 type  1   force =     0.88296154   -0.50800448  -62.80379770
     atom   36 type  1   force =    -0.88296154   -0.50800448  -62.80379770
     atom   37 type  1   force =    -0.00000000    0.00000000  -90.83420144
     atom   38 type  1   force =     0.00000000    0.00000000  -94.64667163
     atom   39 type  1   force =    -0.00000000    0.00000000  -99.23275167
     atom   40 type  1   force =    -0.00000000   -0.00000000 -100.49323614
     atom   41 type  3   force =    -0.00000000   -2.17033463   17.08507476
     atom   42 type  3   force =    -0.00000000   -2.17033463  -17.08507476
     atom   43 type  3   force =     0.00000000    2.17033463   17.08507476
     atom   44 type  3   force =     0.00000000    2.17033463  -17.08507476
     The core correction contribution to forces
     atom    1 type  1   force =     0.00000000   -0.00000000   -0.01055065
     atom    2 type  1   force =    -0.00000000    0.00000000   -0.01069326
     atom    3 type  1   force =    -0.00000000   -0.00000000    0.01372523
     atom    4 type  1   force =    -0.00000000   -0.00000000   -0.01214837
     atom    5 type  2   force =     0.00000000    0.00000000    0.00000000
     atom    6 type  2   force =     0.00000000    0.00000000    0.00000000
     atom    7 type  1   force =    -0.00026984   -0.00007098    0.00132218
     atom    8 type  1   force =     0.00026984   -0.00007098    0.00132218
     atom    9 type  2   force =     0.00000000    0.00000000    0.00000000
     atom   10 type  2   force =     0.00000000    0.00000000    0.00000000
     atom   11 type  1   force =    -0.00026984    0.00007098    0.00132218
     atom   12 type  1   force =     0.00026984    0.00007098    0.00132218
     atom   13 type  1   force =    -0.00000000   -0.00000000   -0.00151866
     atom   14 type  1   force =    -0.00000000    0.00000000    0.00242406
     atom   15 type  1   force =    -0.00000000   -0.00000000   -0.00157807
     atom   16 type  1   force =     0.00000000    0.00000000   -0.00248196
     atom   17 type  2   force =     0.00000000    0.00000000    0.00000000
     atom   18 type  2   force =     0.00000000    0.00000000    0.00000000
     atom   19 type  1   force =    -0.00019292   -0.00033852   -0.00000206
     atom   20 type  1   force =     0.00019292   -0.00033852   -0.00000206
     atom   21 type  2   force =     0.00000000    0.00000000    0.00000000
     atom   22 type  2   force =     0.00000000    0.00000000    0.00000000
     atom   23 type  1   force =    -0.00019292    0.00033800   -0.00000206
     atom   24 type  1   force =     0.00019292    0.00033800   -0.00000206
     atom   25 type  1   force =     0.00000000   -0.00000000    0.00157602
     atom   26 type  1   force =    -0.00000000   -0.00000000    0.00247987
     atom   27 type  1   force =     0.00000000   -0.00000000    0.00151640
     atom   28 type  1   force =     0.00000000    0.00000000   -0.00242636
     atom   29 type  2   force =     0.00000000    0.00000000    0.00000000
     atom   30 type  2   force =     0.00000000    0.00000000    0.00000000
     atom   31 type  1   force =    -0.00026976   -0.00007092   -0.00132374
     atom   32 type  1   force =     0.00026976   -0.00007092   -0.00132374
     atom   33 type  2   force =     0.00000000    0.00000000    0.00000000
     atom   34 type  2   force =     0.00000000    0.00000000    0.00000000
     atom   35 type  1   force =    -0.00026976    0.00007092   -0.00132374
     atom   36 type  1   force =     0.00026976    0.00007092   -0.00132374
     atom   37 type  1   force =    -0.00000000   -0.00000000   -0.01372892
     atom   38 type  1   force =     0.00000000    0.00000000    0.01214462
     atom   39 type  1   force =     0.00000000   -0.00000000    0.01054863
     atom   40 type  1   force =     0.00000000    0.00000000    0.01069141
     atom   41 type  3   force =     0.00000000    0.00000000    0.00000000
     atom   42 type  3   force =     0.00000000    0.00000000    0.00000000
     atom   43 type  3   force =     0.00000000    0.00000000    0.00000000
     atom   44 type  3   force =     0.00000000    0.00000000    0.00000000
     The Hubbard contrib.    to forces
     atom    1 type  1   force =     0.00000000    0.00000000    0.00000000
     atom    2 type  1   force =     0.00000000    0.00000000    0.00000000
     atom    3 type  1   force =     0.00000000    0.00000000    0.00000000
     atom    4 type  1   force =     0.00000000    0.00000000    0.00000000
     atom    5 type  2   force =     0.00000000    0.00000000    0.00000000
     atom    6 type  2   force =     0.00000000    0.00000000    0.00000000
     atom    7 type  1   force =     0.00000000    0.00000000    0.00000000
     atom    8 type  1   force =     0.00000000    0.00000000    0.00000000
     atom    9 type  2   force =     0.00000000    0.00000000    0.00000000
     atom   10 type  2   force =     0.00000000    0.00000000    0.00000000
     atom   11 type  1   force =     0.00000000    0.00000000    0.00000000
     atom   12 type  1   force =     0.00000000    0.00000000    0.00000000
     atom   13 type  1   force =     0.00000000    0.00000000    0.00000000
     atom   14 type  1   force =     0.00000000    0.00000000    0.00000000
     atom   15 type  1   force =     0.00000000    0.00000000    0.00000000
     atom   16 type  1   force =     0.00000000    0.00000000    0.00000000
     atom   17 type  2   force =     0.00000000    0.00000000    0.00000000
     atom   18 type  2   force =     0.00000000    0.00000000    0.00000000
     atom   19 type  1   force =     0.00000000    0.00000000    0.00000000
     atom   20 type  1   force =     0.00000000    0.00000000    0.00000000
     atom   21 type  2   force =     0.00000000    0.00000000    0.00000000
     atom   22 type  2   force =     0.00000000    0.00000000    0.00000000
     atom   23 type  1   force =     0.00000000    0.00000000    0.00000000
     atom   24 type  1   force =     0.00000000    0.00000000    0.00000000
     atom   25 type  1   force =     0.00000000    0.00000000    0.00000000
     atom   26 type  1   force =     0.00000000    0.00000000    0.00000000
     atom   27 type  1   force =     0.00000000    0.00000000    0.00000000
     atom   28 type  1   force =     0.00000000    0.00000000    0.00000000
     atom   29 type  2   force =     0.00000000    0.00000000    0.00000000
     atom   30 type  2   force =     0.00000000    0.00000000    0.00000000
     atom   31 type  1   force =     0.00000000    0.00000000    0.00000000
     atom   32 type  1   force =     0.00000000    0.00000000    0.00000000
     atom   33 type  2   force =     0.00000000    0.00000000    0.00000000
     atom   34 type  2   force =     0.00000000    0.00000000    0.00000000
     atom   35 type  1   force =     0.00000000    0.00000000    0.00000000
     atom   36 type  1   force =     0.00000000    0.00000000    0.00000000
     atom   37 type  1   force =     0.00000000    0.00000000    0.00000000
     atom   38 type  1   force =     0.00000000    0.00000000    0.00000000
     atom   39 type  1   force =     0.00000000    0.00000000    0.00000000
     atom   40 type  1   force =     0.00000000    0.00000000    0.00000000
     atom   41 type  3   force =     0.00000000    0.00000000    0.00000000
     atom   42 type  3   force =     0.00000000    0.00000000    0.00000000
     atom   43 type  3   force =     0.00000000    0.00000000    0.00000000
     atom   44 type  3   force =     0.00000000    0.00000000    0.00000000
     The SCF correction term to forces
     atom    1 type  1   force =     0.00000000    0.00000000    0.00000093
     atom    2 type  1   force =    -0.00000000    0.00000000    0.00000182
     atom    3 type  1   force =     0.00000000    0.00000000   -0.00000065
     atom    4 type  1   force =     0.00000000   -0.00000000    0.00000019
     atom    5 type  2   force =    -0.00000173   -0.00000000    0.00000251
     atom    6 type  2   force =     0.00000173   -0.00000000    0.00000251
     atom    7 type  1   force =     0.00000005    0.00000060    0.00000066
     atom    8 type  1   force =    -0.00000005    0.00000060    0.00000066
     atom    9 type  2   force =     0.00000000    0.00000000    0.00000079
     atom   10 type  2   force =     0.00000000    0.00000000    0.00000037
     atom   11 type  1   force =     0.00000005   -0.00000060    0.00000066
     atom   12 type  1   force =    -0.00000005   -0.00000060    0.00000066
     atom   13 type  1   force =     0.00000000    0.00000000    0.00000089
     atom   14 type  1   force =    -0.00000000   -0.00000000    0.00000175
     atom   15 type  1   force =    -0.00000000    0.00000000    0.00000022
     atom   16 type  1   force =     0.00000000   -0.00000000   -0.00000016
     atom   17 type  2   force =     0.00000000   -0.00000000    0.00000004
     atom   18 type  2   force =     0.00000000    0.00000000    0.00000004
     atom   19 type  1   force =     0.00000039   -0.00000072    0.00000002
     atom   20 type  1   force =    -0.00000039   -0.00000072    0.00000002
     atom   21 type  2   force =     0.00000007    0.00000000    0.00000004
     atom   22 type  2   force =    -0.00000007    0.00000000    0.00000004
     atom   23 type  1   force =     0.00000039    0.00000072    0.00000002
     atom   24 type  1   force =    -0.00000039    0.00000072    0.00000002
     atom   25 type  1   force =     0.00000000    0.00000000   -0.00000020
     atom   26 type  1   force =     0.00000000   -0.00000000    0.00000018
     atom   27 type  1   force =     0.00000000   -0.00000000   -0.00000087
     atom   28 type  1   force =     0.00000000    0.00000000   -0.00000173
     atom   29 type  2   force =    -0.00000172   -0.00000000   -0.00000250
     atom   30 type  2   force =     0.00000172   -0.00000000   -0.00000250
     atom   31 type  1   force =     0.00000005    0.00000060   -0.00000066
     atom   32 type  1   force =    -0.00000005    0.00000060   -0.00000066
     atom   33 type  2   force =    -0.00000000    0.00000000   -0.00000077
     atom   34 type  2   force =    -0.00000000    0.00000000   -0.00000036
     atom   35 type  1   force =     0.00000005   -0.00000060   -0.00000066
     atom   36 type  1   force =    -0.00000005   -0.00000060   -0.00000066
     atom   37 type  1   force =     0.00000000    0.00000000    0.00000065
     atom   38 type  1   force =     0.00000000    0.00000000   -0.00000019
     atom   39 type  1   force =     0.00000000   -0.00000000   -0.00000093
     atom   40 type  1   force =    -0.00000000   -0.00000000   -0.00000183
     atom   41 type  3   force =     0.00000000   -0.00000009    0.00000011
     atom   42 type  3   force =     0.00000000   -0.00000009   -0.00000011
     atom   43 type  3   force =    -0.00000000    0.00000009    0.00000011
     atom   44 type  3   force =     0.00000000    0.00000009   -0.00000011

     Total force =     0.000261     Total SCF correction =     0.000008
     Energy error            =      3.3E-08 Ry
     Gradient error          =      6.8E-05 Ry/Bohr

     bfgs converged in   9 scf cycles and   8 bfgs steps
     (criteria: energy <  1.0E-04 Ry, force <  1.0E-04 Ry/Bohr)

     End of BFGS Geometry Optimization

     Final energy             =   -3432.5141242570 Ry

     File /storage/home/mgm6007/ixd4/Maria/StrainJin_Files/RuO2-110-0-24/RuO2-110-0-24.bfgs deleted, as requested
Begin final coordinates

ATOMIC_POSITIONS (crystal)
O             0.0000000000        0.5000000000        0.2745010241
O             0.5000000000        0.5000000000        0.2732848401
O             0.0000000000        0.0000000000        0.2908805196
O             0.5000000000        0.0000000000        0.3072042803
Ru            0.2635632103        0.0000000000        0.3583526932
Ru            0.7364367897       -0.0000000000        0.3583526932
O             0.2498528862        0.3122792408        0.3590510369
O             0.7501471138        0.3122792408        0.3590510369
Ru            0.0000000000        0.5000000000        0.3543430292
Ru            0.5000000000        0.5000000000        0.3513142240
O             0.2498528862        0.6877207592        0.3590510369
O             0.7501471138        0.6877207592        0.3590510369
O             0.0000000000        0.0000000000        0.4109535814
O             0.5000000000        0.0000000000        0.4121729049
O             0.0000000000        0.5000000000        0.4454267280
O             0.5000000000        0.5000000000        0.4449221503
Ru            0.0000000000        0.0000000000        0.5000010000
Ru            0.5000000000        0.0000000000        0.5000010000
O             0.2490974705        0.1863714359        0.5000010000
O             0.7509025295        0.1863714359        0.5000010000
Ru            0.2515244673        0.5000000000        0.5000010000
Ru            0.7484755327        0.5000000000        0.5000010000
O             0.2490974705        0.8136295641        0.5000010000
O             0.7509025295        0.8136295641        0.5000010000
O             0.0000000000        0.5000000000        0.5545742720
O             0.5000000000        0.5000000000        0.5550788497
O             0.0000000000        0.0000000000        0.5890474186
O             0.5000000000        0.0000000000        0.5878280951
Ru            0.2635632103       -0.0000000000        0.6416483068
Ru            0.7364367897        0.0000000000        0.6416483068
O             0.2498528862        0.3122792408        0.6409499631
O             0.7501471138        0.3122792408        0.6409499631
Ru            0.0000000000        0.5000000000        0.6456579708
Ru            0.5000000000        0.5000000000        0.6486867760
O             0.2498528862        0.6877207592        0.6409499631
O             0.7501471138        0.6877207592        0.6409499631
O             0.0000000000        0.0000000000        0.7091214804
O             0.5000000000        0.0000000000        0.6927977197
O             0.0000000000        0.5000000000        0.7254999759
O             0.5000000000        0.5000000000        0.7267161599
H             0.0000000000        0.1322822325        0.2638201511
H             0.0000000000        0.1322822325        0.7361798489
H             0.0000000000        0.8677177675        0.2638201511
H             0.0000000000        0.8677177675        0.7361798489
End final coordinates



     Writing all to output data dir /storage/home/mgm6007/ixd4/Maria/StrainJin_Files/RuO2-110-0-24/RuO2-110-0-24.save/
 
     init_run     :    332.46s CPU    713.75s WALL (       1 calls)
     electrons    :  13841.95s CPU  32055.78s WALL (       9 calls)
     update_pot   :     13.52s CPU     13.53s WALL (       8 calls)
     forces       :     13.91s CPU     14.07s WALL (       9 calls)

     Called by init_run:
     wfcinit      :      0.49s CPU      0.49s WALL (       1 calls)
     potinit      :    224.33s CPU    461.12s WALL (       1 calls)
     hinit0       :    107.19s CPU    251.64s WALL (       1 calls)

     Called by electrons:
     c_bands      :    204.05s CPU    204.43s WALL (     160 calls)
     sum_band     :     41.25s CPU     41.56s WALL (     160 calls)
     v_of_rho     :     56.51s CPU     56.57s WALL (     161 calls)
     newd         :     11.58s CPU     11.61s WALL (     161 calls)
     PAW_pot      :     19.50s CPU     19.51s WALL (     169 calls)
     mix_rho      :     91.52s CPU     91.82s WALL (     160 calls)

     Called by c_bands:
     init_us_2    :      2.23s CPU      2.24s WALL (     329 calls)
     init_us_2:cp :      2.23s CPU      2.24s WALL (     329 calls)
     cegterg      :    196.65s CPU    197.00s WALL (     160 calls)

     Called by *egterg:
     cdiaghg      :     25.43s CPU     25.47s WALL (     540 calls)
     h_psi        :     99.74s CPU     99.98s WALL (     557 calls)
     s_psi        :     15.20s CPU     15.22s WALL (     557 calls)
     g_psi        :      0.47s CPU      0.47s WALL (     396 calls)

     Called by h_psi:
     h_psi:calbec :     15.62s CPU     15.66s WALL (     557 calls)
     vloc_psi     :     67.54s CPU     67.70s WALL (     557 calls)
     add_vuspsi   :     15.44s CPU     15.47s WALL (     557 calls)

     General routines
     calbec       :     24.55s CPU     24.62s WALL (     761 calls)
     fft          :   3195.14s CPU   3195.58s WALL (    2190 calls)
     ffts         :     33.76s CPU     33.85s WALL (   52242 calls)
     fftw         :     61.03s CPU     61.16s WALL (  184582 calls)
     interpolate  :   3183.01s CPU   3183.43s WALL (     161 calls)
 
     Parallel routines
 
     Environ routines
 
     PWSCF        :      4h10m CPU      9h36m WALL

 
   This run was terminated on:  20:54:19  26Jul2023            

=------------------------------------------------------------------------------=
   JOB DONE.
=------------------------------------------------------------------------------=
