
     Program PWSCF v.7.2 starts on 23Jul2023 at 14:20:44 
        Git branch: heads/qe-7.2
        Last git commit: b4c5e8deeb7d1863e7553a87b45f8d22c21926a5
        Last git commit date: Mon Mar 27 16:12:09 2023 +0000
        Last git commit subject: Merge branch 'merge_fix_hubbard' into 'develop'

     This program is part of the open-source Quantum ESPRESSO suite
     for quantum simulation of materials; please cite
         "P. Giannozzi et al., J. Phys.:Condens. Matter 21 395502 (2009);
         "P. Giannozzi et al., J. Phys.:Condens. Matter 29 465901 (2017);
         "P. Giannozzi et al., J. Chem. Phys. 152 154105 (2020);
          URL http://www.quantum-espresso.org", 
     in publications or presentations arising from this work. More details at
     http://www.quantum-espresso.org/quote

     Parallel version (MPI), running on    20 processors

     MPI processes distributed on     1 nodes
     108778 MiB available memory on the printing compute node when the environment starts
 
     Reading input from RuO2-110-0-0125.in

     Current dimensions of program PWSCF are:
     Max number of different atomic species (ntypx) = 10
     Max number of k-points (npk) =  40000
     Max angular momentum in pseudopotentials (lmaxx) =  4
 
     Reading input from environ.in:
     * Environ restarting
     * setting up water environment
     * using electronic solvent mode
     * setting boundary derivatives method to SCCS default
     
     file O.pbe-n-kjpaw_psl.0.1.UPF: wavefunction(s)  2P renormalized
     Message from routine setup:
     using ibrav=0 with symmetry is DISCOURAGED, use correct ibrav instead
 
     R & G space division:  proc/nbgrp/npool/nimage =      20
     Subspace diagonalization in iterative solution of the eigenvalue problem:
     one sub-group per band group will be used
     scalapack distributed-memory algorithm (size of sub-group:  2*  2 procs)

 
     Parallelization info
     --------------------
     sticks:   dense  smooth     PW     G-vecs:    dense   smooth      PW
     Min         279     111     29                55537    14039    1893
     Max         280     112     30                55546    14052    1904
     Sum        5595    2237    595              1110843   280917   37967
 
     Using Slab Decomposition
 


     bravais-lattice index     =            0
     lattice parameter (alat)  =      12.2467  a.u.
     unit-cell volume          =    5883.2137 (a.u.)^3
     number of atoms/cell      =           48
     number of atomic types    =            3
     number of electrons       =       368.00
     number of Kohn-Sham states=          221
     kinetic-energy cutoff     =      50.0000  Ry
     charge density cutoff     =     500.0000  Ry
     scf convergence threshold =      1.0E-09
     mixing beta               =       0.7000
     number of iterations used =            8  local-TF  mixing
     energy convergence thresh.=      1.0E-04
     force convergence thresh. =      1.0E-04
     Exchange-correlation= PBE
                           (   1   4   3   4   0   0   0)
     nstep                     =          200


     ================================================================================
 
                                  Environ Setup Summary

     ================================================================================
 
     Please cite

          O. Andreussi, I. Dabo and N. Marzari, J. Chem. Phys. 136, 064102 (2012)

     in publications or presentations arising from this work.

     ================================================================================
 
     Parameters
     ==========

     compensation onset threshold      =               0.1000E+00
     static permittivity               =                    78.30
     surface tension in input (dyn/cm) =                    47.90
     surface tension in internal units =               0.6153E-04
     external pressure in input (GPa)  =                    -0.36
     external pressure in inter. units =              -0.2447E-04

     Solvent Boundary
     ================

     solvent mode                      =               electronic
     derivatives method                =                    chain
     numerical core for derivatives    =                      fft
     switching function adopted        =                     SCCS
     density limit for vacuum region   =               0.5000E-02
     density limit for bulk solvent    =               0.1000E-03

     Electrostatic Setup
     ===================

     electrostatic problem to solve    =              generalized
     numerical solver adopted          =                       cg
     type of auxiliary density adopted =                     none
     numerical core for poisson        =                      fft
     type of pbc corrections           =                parabolic
     numerical core for corrections    =                      1da

     ================================================================================
 

     celldm(1)=  12.246684  celldm(2)=   0.000000  celldm(3)=   0.000000
     celldm(4)=   0.000000  celldm(5)=   0.000000  celldm(6)=   0.000000

     crystal axes: (cart. coord. in units of alat)
               a(1) = (   1.000000   0.000000   0.000000 )  
               a(2) = (   0.000000   0.937861   0.000000 )  
               a(3) = (   0.000000   0.000000   3.415235 )  

     reciprocal axes: (cart. coord. in units 2 pi/alat)
               b(1) = (  1.000000  0.000000  0.000000 )  
               b(2) = (  0.000000  1.066256  0.000000 )  
               b(3) = (  0.000000  0.000000  0.292806 )  


     PseudoPot. # 1 for O  read from file:
     /gpfs/group/ixd4/default/Simon/pseudopotentials/materialscloud/SSSP_1.3.0_PBE_efficiency/O.pbe-n-kjpaw_psl.0.1.UPF
     MD5 check sum: 0234752ac141de4415c5fc33072bef88
     Pseudo is Projector augmented-wave + core cor, Zval =  6.0
     Generated using "atomic" code by A. Dal Corso  v.5.0.99 svn rev. 10869
     Shape of augmentation charge: BESSEL
     Using radial grid of 1095 points,  4 beta functions with: 
                l(1) =   0
                l(2) =   0
                l(3) =   1
                l(4) =   1
     Q(r) pseudized with 0 coefficients 


     PseudoPot. # 2 for Ru read from file:
     /gpfs/group/ixd4/default/Simon/pseudopotentials/materialscloud/SSSP_1.3.0_PBE_efficiency/Ru_ONCV_PBE-1.0.oncvpsp.upf
     MD5 check sum: be037bb81c227cfb9b1461a9f099f4bd
     Pseudo is Norm-conserving, Zval = 16.0
     Generated using ONCVPSP code by D. R. Hamann
     Using radial grid of 1458 points,  6 beta functions with: 
                l(1) =   0
                l(2) =   0
                l(3) =   1
                l(4) =   1
                l(5) =   2
                l(6) =   2

     PseudoPot. # 3 for H  read from file:
     /gpfs/group/ixd4/default/Simon/pseudopotentials/materialscloud/SSSP_1.3.0_PBE_efficiency/H.pbe-rrkjus_psl.1.0.0.UPF
     MD5 check sum: f52b6d4d1c606e5624b1dc7b2218f220
     Pseudo is Ultrasoft, Zval =  1.0
     Generated using "atomic" code by A. Dal Corso  v.5.1
     Using radial grid of  929 points,  2 beta functions with: 
                l(1) =   0
                l(2) =   0
     Q(r) pseudized with 0 coefficients 


     atomic species   valence    mass     pseudopotential
        O              6.00    15.99940     O ( 1.00)
        Ru            16.00   101.07000     Ru( 1.00)
        H              1.00     1.00794     H ( 1.00)

      4 Sym. Ops. (no inversion) found ( 2 have fractional translation)



   Cartesian axes

     site n.     atom                  positions (alat units)
         1           O   tau(   1) = (   0.0000000   0.4689304   0.8907241  )
         2           O   tau(   2) = (   0.5000000   0.4689304   0.8907241  )
         3           O   tau(   3) = (   0.0000000   0.0000000   1.0046461  )
         4           O   tau(   4) = (   0.5000000   0.0000000   1.0046461  )
         5           Ru  tau(   5) = (   0.2500000   0.0000000   1.2009948  )
         6           Ru  tau(   6) = (   0.7500000   0.0000000   1.2009948  )
         7           O   tau(   7) = (   0.2500000   0.2871871   1.2009948  )
         8           O   tau(   8) = (   0.7500000   0.2871871   1.2009948  )
         9           Ru  tau(   9) = (   0.0000000   0.4689304   1.2009948  )
        10           Ru  tau(  10) = (   0.5000000   0.4689304   1.2009948  )
        11           O   tau(  11) = (   0.2500000   0.6506738   1.2009948  )
        12           O   tau(  12) = (   0.7500000   0.6506738   1.2009948  )
        13           O   tau(  13) = (   0.0000000   0.0000000   1.3973469  )
        14           O   tau(  14) = (   0.5000000   0.0000000   1.3973469  )
        15           O   tau(  15) = (   0.0000000   0.4689304   1.5112689  )
        16           O   tau(  16) = (   0.5000000   0.4689304   1.5112689  )
        17           Ru  tau(  17) = (   0.0000000   0.0000000   1.7076210  )
        18           Ru  tau(  18) = (   0.5000000   0.0000000   1.7076210  )
        19           O   tau(  19) = (   0.2500000   0.1817434   1.7076210  )
        20           O   tau(  20) = (   0.7500000   0.1817434   1.7076210  )
        21           Ru  tau(  21) = (   0.2500000   0.4689304   1.7076210  )
        22           Ru  tau(  22) = (   0.7500000   0.4689304   1.7076210  )
        23           O   tau(  23) = (   0.2500000   0.7561184   1.7076210  )
        24           O   tau(  24) = (   0.7500000   0.7561184   1.7076210  )
        25           O   tau(  25) = (   0.0000000   0.4689304   1.9039697  )
        26           O   tau(  26) = (   0.5000000   0.4689304   1.9039697  )
        27           O   tau(  27) = (   0.0000000   0.0000000   2.0178917  )
        28           O   tau(  28) = (   0.5000000   0.0000000   2.0178917  )
        29           Ru  tau(  29) = (   0.2500000   0.0000000   2.2142438  )
        30           Ru  tau(  30) = (   0.7500000   0.0000000   2.2142438  )
        31           O   tau(  31) = (   0.2500000   0.2871871   2.2142438  )
        32           O   tau(  32) = (   0.7500000   0.2871871   2.2142438  )
        33           Ru  tau(  33) = (   0.0000000   0.4689304   2.2142438  )
        34           Ru  tau(  34) = (   0.5000000   0.4689304   2.2142438  )
        35           O   tau(  35) = (   0.2500000   0.6506738   2.2142438  )
        36           O   tau(  36) = (   0.7500000   0.6506738   2.2142438  )
        37           O   tau(  37) = (   0.0000000   0.0000000   2.4105960  )
        38           O   tau(  38) = (   0.5000000   0.0000000   2.4105960  )
        39           O   tau(  39) = (   0.0000000   0.4689304   2.5245146  )
        40           O   tau(  40) = (   0.5000000   0.4689304   2.5245146  )
        41           H   tau(  41) = (   0.1176350   0.4689304   0.7749954  )
        42           H   tau(  42) = (   0.1176350   0.4689304   2.6402398  )
        43           H   tau(  43) = (   0.6176350   0.4689304   0.7749954  )
        44           H   tau(  44) = (   0.6176350   0.4689304   2.6402398  )
        45           H   tau(  45) = (   0.0000000   0.1071187   0.8889140  )
        46           H   tau(  46) = (   0.0000000   0.1071187   2.5263212  )
        47           H   tau(  47) = (   0.5000000   0.8307422   0.8889140  )
        48           H   tau(  48) = (   0.5000000   0.8307422   2.5263212  )

     number of k points=     1  Marzari-Vanderbilt smearing, width (Ry)=  0.0300
                       cart. coord. in units 2pi/alat
        k(    1) = (   0.2500000   0.2665641   0.0000000), wk =   2.0000000

     Dense  grid:  1110843 G-vectors     FFT dimensions: (  90,  81, 300)

     Smooth grid:   280917 G-vectors     FFT dimensions: (  60,  54, 192)

     Estimated max dynamical RAM per process >     170.37 MB

     Estimated total dynamical RAM >       3.33 GB

     Check: negative core charge=   -0.000001

     Initial potential from superposition of free atoms

     starting charge     367.9933, renormalised to     368.0000

     add environment contribution to local potential
     Polarization accuracy = 8.3E-12, # of iterations =  21

     negative rho (up, down):  1.653E-05 0.000E+00
     Starting wfcs are  240 randomized atomic wfcs
     Checking if some PAW data can be deallocated... 

     total cpu time spent up to now is      689.0 secs

     per-process dynamical memory:   139.3 Mb

     Self-consistent Calculation

     iteration #  1     ecut=    50.00 Ry     beta= 0.70
     Davidson diagonalization with overlap
     ethr =  1.00E-02,  avg # of iterations =  3.0

     total cpu time spent up to now is      839.9 secs

     total energy              =   -3435.31153188 Ry
     estimated scf accuracy    <       9.17790282 Ry
     electrostatic embedding   =      -0.00209518 Ry
     cavitation energy         =       0.02055132 Ry
     PV energy                 =      -0.09058720 Ry
     correction to one-el term =     221.26735303 Ry

     iteration #  2     ecut=    50.00 Ry     beta= 0.70
     Davidson diagonalization with overlap
     ethr =  2.49E-03,  avg # of iterations =  2.0

     total cpu time spent up to now is      995.4 secs

     total energy              =   -3437.35164584 Ry
     estimated scf accuracy    <       2.83376786 Ry
     electrostatic embedding   =      -0.00341382 Ry
     cavitation energy         =       0.02026419 Ry
     PV energy                 =      -0.09204398 Ry
     correction to one-el term =     221.27180473 Ry

     iteration #  3     ecut=    50.00 Ry     beta= 0.70
     Davidson diagonalization with overlap
     ethr =  7.70E-04,  avg # of iterations =  2.0

     total cpu time spent up to now is     1154.7 secs

     total energy              =   -3437.56372415 Ry
     estimated scf accuracy    <       0.35172085 Ry
     electrostatic embedding   =      -0.00389240 Ry
     cavitation energy         =       0.02018727 Ry
     PV energy                 =      -0.09226950 Ry
     correction to one-el term =     221.27318651 Ry

     iteration #  4     ecut=    50.00 Ry     beta= 0.70
     Davidson diagonalization with overlap
     ethr =  9.56E-05,  avg # of iterations =  5.0

     total cpu time spent up to now is     1329.4 secs

     total energy              =   -3437.57660498 Ry
     estimated scf accuracy    <       0.73216731 Ry
     electrostatic embedding   =      -0.00412831 Ry
     cavitation energy         =       0.02030942 Ry
     PV energy                 =      -0.09174800 Ry
     correction to one-el term =     221.27349021 Ry

     iteration #  5     ecut=    50.00 Ry     beta= 0.70
     Davidson diagonalization with overlap
     ethr =  9.56E-05,  avg # of iterations =  1.0

     total cpu time spent up to now is     1488.1 secs

     total energy              =   -3437.57173617 Ry
     estimated scf accuracy    <       0.21775116 Ry
     electrostatic embedding   =      -0.00424307 Ry
     cavitation energy         =       0.02050406 Ry
     PV energy                 =      -0.09111751 Ry
     correction to one-el term =     221.27346439 Ry

     iteration #  6     ecut=    50.00 Ry     beta= 0.70
     Davidson diagonalization with overlap
     ethr =  5.92E-05,  avg # of iterations =  2.0

     total cpu time spent up to now is     1631.6 secs

     total energy              =   -3437.56221472 Ry
     estimated scf accuracy    <       0.20500476 Ry
     electrostatic embedding   =      -0.00426584 Ry
     cavitation energy         =       0.02096626 Ry
     PV energy                 =      -0.08967570 Ry
     correction to one-el term =     221.27290203 Ry

     iteration #  7     ecut=    50.00 Ry     beta= 0.70
     Davidson diagonalization with overlap
     ethr =  5.57E-05,  avg # of iterations =  3.0

     total cpu time spent up to now is     1805.9 secs

     total energy              =   -3437.55255088 Ry
     estimated scf accuracy    <       0.11801885 Ry
     electrostatic embedding   =      -0.00394614 Ry
     cavitation energy         =       0.02162058 Ry
     PV energy                 =      -0.08752631 Ry
     correction to one-el term =     221.27121894 Ry

     iteration #  8     ecut=    50.00 Ry     beta= 0.70
     Davidson diagonalization with overlap
     ethr =  3.21E-05,  avg # of iterations =  9.0

     negative rho (up, down):  2.364E-04 0.000E+00

     add environment contribution to local potential
     Polarization accuracy = 4.3E-12, # of iterations =  47

     total cpu time spent up to now is     1964.7 secs

     total energy              =   -3437.54634873 Ry
     estimated scf accuracy    <       0.06540746 Ry
     electrostatic embedding   =      -0.00338360 Ry
     cavitation energy         =       0.02214126 Ry
     PV energy                 =      -0.08566839 Ry
     correction to one-el term =     221.26893313 Ry

     iteration #  9     ecut=    50.00 Ry     beta= 0.70
     Davidson diagonalization with overlap
     ethr =  1.78E-05,  avg # of iterations =  7.0

     negative rho (up, down):  6.241E-03 0.000E+00

     add environment contribution to local potential
     Polarization accuracy = 7.1E-12, # of iterations =  49

     total cpu time spent up to now is     2122.0 secs

     total energy              =   -3437.58025665 Ry
     estimated scf accuracy    <       0.02639956 Ry
     electrostatic embedding   =      -0.04622330 Ry
     cavitation energy         =       0.02218031 Ry
     PV energy                 =      -0.08494587 Ry
     correction to one-el term =     180.32123963 Ry

     iteration # 10     ecut=    50.00 Ry     beta= 0.70
     Davidson diagonalization with overlap
     ethr =  7.17E-06,  avg # of iterations =  2.0

     negative rho (up, down):  5.857E-03 0.000E+00

     add environment contribution to local potential
     Polarization accuracy = 2.7E-12, # of iterations =  48

     total cpu time spent up to now is     2300.1 secs

     total energy              =   -3437.58301042 Ry
     estimated scf accuracy    <       0.01486822 Ry
     electrostatic embedding   =      -0.04865613 Ry
     cavitation energy         =       0.02194654 Ry
     PV energy                 =      -0.08472254 Ry
     correction to one-el term =     180.39673625 Ry

     iteration # 11     ecut=    50.00 Ry     beta= 0.70
     Davidson diagonalization with overlap
     ethr =  4.04E-06,  avg # of iterations =  4.0

     negative rho (up, down):  1.703E-02 0.000E+00

     add environment contribution to local potential
     Polarization accuracy = 4.4E-12, # of iterations =  46

     total cpu time spent up to now is     2473.1 secs

     total energy              =   -3437.58266901 Ry
     estimated scf accuracy    <       0.01468234 Ry
     electrostatic embedding   =      -0.04875509 Ry
     cavitation energy         =       0.02172967 Ry
     PV energy                 =      -0.08482044 Ry
     correction to one-el term =     180.93745318 Ry

     iteration # 12     ecut=    50.00 Ry     beta= 0.70
     Davidson diagonalization with overlap
     ethr =  3.99E-06,  avg # of iterations =  5.0

     negative rho (up, down):  3.874E-03 0.000E+00

     add environment contribution to local potential
     Polarization accuracy = 8.7E-12, # of iterations =  43

     total cpu time spent up to now is     2622.4 secs

     total energy              =   -3437.58468002 Ry
     estimated scf accuracy    <       0.00553261 Ry
     electrostatic embedding   =      -0.05190560 Ry
     cavitation energy         =       0.02126160 Ry
     PV energy                 =      -0.08514488 Ry
     correction to one-el term =     182.23072927 Ry

     iteration # 13     ecut=    50.00 Ry     beta= 0.70
     Davidson diagonalization with overlap
     ethr =  1.50E-06,  avg # of iterations =  6.0

     negative rho (up, down):  4.309E-05 0.000E+00

     add environment contribution to local potential
     Polarization accuracy = 5.7E-12, # of iterations =  42

     total cpu time spent up to now is     2774.9 secs

     total energy              =   -3437.58542092 Ry
     estimated scf accuracy    <       0.00195613 Ry
     electrostatic embedding   =      -0.04793949 Ry
     cavitation energy         =       0.02129565 Ry
     PV energy                 =      -0.08531202 Ry
     correction to one-el term =     183.04632294 Ry

     iteration # 14     ecut=    50.00 Ry     beta= 0.70
     Davidson diagonalization with overlap
     ethr =  5.32E-07,  avg # of iterations =  7.0

     negative rho (up, down):  2.635E-05 0.000E+00

     add environment contribution to local potential
     Polarization accuracy = 4.0E-12, # of iterations =  42

     total cpu time spent up to now is     2945.1 secs

     total energy              =   -3437.58594361 Ry
     estimated scf accuracy    <       0.00073404 Ry
     electrostatic embedding   =      -0.04562967 Ry
     cavitation energy         =       0.02120288 Ry
     PV energy                 =      -0.08559826 Ry
     correction to one-el term =     183.98150658 Ry

     iteration # 15     ecut=    50.00 Ry     beta= 0.70
     Davidson diagonalization with overlap
     ethr =  1.99E-07,  avg # of iterations =  7.0

     negative rho (up, down):  3.910E-05 0.000E+00

     add environment contribution to local potential
     Polarization accuracy = 3.7E-12, # of iterations =  42

     total cpu time spent up to now is     3106.3 secs

     total energy              =   -3437.58621442 Ry
     estimated scf accuracy    <       0.00022926 Ry
     electrostatic embedding   =      -0.04444331 Ry
     cavitation energy         =       0.02118011 Ry
     PV energy                 =      -0.08568533 Ry
     correction to one-el term =     185.01049536 Ry

     iteration # 16     ecut=    50.00 Ry     beta= 0.70
     Davidson diagonalization with overlap
     ethr =  6.23E-08,  avg # of iterations =  7.0

     negative rho (up, down):  3.536E-04 0.000E+00

     add environment contribution to local potential
     Polarization accuracy = 4.2E-12, # of iterations =  42

     total cpu time spent up to now is     3280.8 secs

     total energy              =   -3437.58625680 Ry
     estimated scf accuracy    <       0.00007250 Ry
     electrostatic embedding   =      -0.04352535 Ry
     cavitation energy         =       0.02118536 Ry
     PV energy                 =      -0.08572489 Ry
     correction to one-el term =     185.45153373 Ry

     iteration # 17     ecut=    50.00 Ry     beta= 0.70
     Davidson diagonalization with overlap
     ethr =  1.97E-08,  avg # of iterations =  2.0

     negative rho (up, down):  1.820E-04 0.000E+00

     add environment contribution to local potential
     Polarization accuracy = 4.6E-12, # of iterations =  42

     total cpu time spent up to now is     3443.8 secs

     total energy              =   -3437.58626646 Ry
     estimated scf accuracy    <       0.00000372 Ry
     electrostatic embedding   =      -0.04319008 Ry
     cavitation energy         =       0.02120074 Ry
     PV energy                 =      -0.08571831 Ry
     correction to one-el term =     185.59199082 Ry

     iteration # 18     ecut=    50.00 Ry     beta= 0.70
     Davidson diagonalization with overlap
     ethr =  1.01E-09,  avg # of iterations =  2.0

     negative rho (up, down):  1.361E-04 0.000E+00

     add environment contribution to local potential
     Polarization accuracy = 4.6E-12, # of iterations =  42

     total cpu time spent up to now is     3594.8 secs

     total energy              =   -3437.58626765 Ry
     estimated scf accuracy    <       0.00000167 Ry
     electrostatic embedding   =      -0.04323653 Ry
     cavitation energy         =       0.02120207 Ry
     PV energy                 =      -0.08571029 Ry
     correction to one-el term =     185.60066701 Ry

     iteration # 19     ecut=    50.00 Ry     beta= 0.70
     Davidson diagonalization with overlap
     ethr =  4.54E-10,  avg # of iterations =  2.0

     negative rho (up, down):  1.805E-04 0.000E+00

     add environment contribution to local potential
     Polarization accuracy = 4.3E-12, # of iterations =  42

     total cpu time spent up to now is     3754.4 secs

     total energy              =   -3437.58626839 Ry
     estimated scf accuracy    <       0.00000073 Ry
     electrostatic embedding   =      -0.04316747 Ry
     cavitation energy         =       0.02120175 Ry
     PV energy                 =      -0.08571272 Ry
     correction to one-el term =     185.62331234 Ry

     iteration # 20     ecut=    50.00 Ry     beta= 0.70
     Davidson diagonalization with overlap
     ethr =  1.97E-10,  avg # of iterations =  2.0

     negative rho (up, down):  1.229E-04 0.000E+00

     add environment contribution to local potential
     Polarization accuracy = 4.3E-12, # of iterations =  42

     total cpu time spent up to now is     3921.7 secs

     total energy              =   -3437.58626916 Ry
     estimated scf accuracy    <       0.00000037 Ry
     electrostatic embedding   =      -0.04308739 Ry
     cavitation energy         =       0.02119951 Ry
     PV energy                 =      -0.08571879 Ry
     correction to one-el term =     185.64714155 Ry

     iteration # 21     ecut=    50.00 Ry     beta= 0.70
     Davidson diagonalization with overlap
     ethr =  9.93E-11,  avg # of iterations =  2.0

     negative rho (up, down):  1.225E-04 0.000E+00

     add environment contribution to local potential
     Polarization accuracy = 3.9E-12, # of iterations =  41

     total cpu time spent up to now is     4070.8 secs

     total energy              =   -3437.58626930 Ry
     estimated scf accuracy    <       0.00000026 Ry
     electrostatic embedding   =      -0.04308661 Ry
     cavitation energy         =       0.02119888 Ry
     PV energy                 =      -0.08571872 Ry
     correction to one-el term =     185.64280262 Ry

     iteration # 22     ecut=    50.00 Ry     beta= 0.70
     Davidson diagonalization with overlap
     ethr =  7.04E-11,  avg # of iterations =  2.0

     negative rho (up, down):  9.309E-05 0.000E+00

     add environment contribution to local potential
     Polarization accuracy = 4.3E-12, # of iterations =  42

     total cpu time spent up to now is     4246.4 secs

     total energy              =   -3437.58626984 Ry
     estimated scf accuracy    <       0.00000021 Ry
     electrostatic embedding   =      -0.04307720 Ry
     cavitation energy         =       0.02119778 Ry
     PV energy                 =      -0.08571901 Ry
     correction to one-el term =     185.64803713 Ry

     iteration # 23     ecut=    50.00 Ry     beta= 0.70
     Davidson diagonalization with overlap
     ethr =  5.74E-11,  avg # of iterations =  2.0

     negative rho (up, down):  9.108E-05 0.000E+00

     add environment contribution to local potential
     Polarization accuracy = 4.3E-12, # of iterations =  42

     total cpu time spent up to now is     4401.3 secs

     total energy              =   -3437.58627049 Ry
     estimated scf accuracy    <       0.00000020 Ry
     electrostatic embedding   =      -0.04308314 Ry
     cavitation energy         =       0.02119750 Ry
     PV energy                 =      -0.08571780 Ry
     correction to one-el term =     185.64638340 Ry

     iteration # 24     ecut=    50.00 Ry     beta= 0.70
     Davidson diagonalization with overlap
     ethr =  5.55E-11,  avg # of iterations =  1.0

     negative rho (up, down):  9.478E-05 0.000E+00

     add environment contribution to local potential
     Polarization accuracy = 4.3E-12, # of iterations =  42

     total cpu time spent up to now is     4547.1 secs

     total energy              =   -3437.58627102 Ry
     estimated scf accuracy    <       0.00000016 Ry
     electrostatic embedding   =      -0.04309539 Ry
     cavitation energy         =       0.02119726 Ry
     PV energy                 =      -0.08571722 Ry
     correction to one-el term =     185.64313131 Ry

     iteration # 25     ecut=    50.00 Ry     beta= 0.70
     Davidson diagonalization with overlap
     ethr =  4.35E-11,  avg # of iterations =  1.0

     negative rho (up, down):  1.081E-04 0.000E+00

     add environment contribution to local potential
     Polarization accuracy = 4.3E-12, # of iterations =  42

     total cpu time spent up to now is     4724.6 secs

     total energy              =   -3437.58627153 Ry
     estimated scf accuracy    <       0.00000016 Ry
     electrostatic embedding   =      -0.04309922 Ry
     cavitation energy         =       0.02119749 Ry
     PV energy                 =      -0.08571683 Ry
     correction to one-el term =     185.64302369 Ry

     iteration # 26     ecut=    50.00 Ry     beta= 0.70
     Davidson diagonalization with overlap
     ethr =  4.25E-11,  avg # of iterations =  1.0

     negative rho (up, down):  1.231E-04 0.000E+00

     add environment contribution to local potential
     Polarization accuracy = 4.3E-12, # of iterations =  42

     total cpu time spent up to now is     4884.3 secs

     total energy              =   -3437.58627195 Ry
     estimated scf accuracy    <       0.00000016 Ry
     electrostatic embedding   =      -0.04309601 Ry
     cavitation energy         =       0.02119757 Ry
     PV energy                 =      -0.08571722 Ry
     correction to one-el term =     185.64492140 Ry

     iteration # 27     ecut=    50.00 Ry     beta= 0.70
     Davidson diagonalization with overlap
     ethr =  4.23E-11,  avg # of iterations =  1.0

     negative rho (up, down):  1.380E-04 0.000E+00

     add environment contribution to local potential
     Polarization accuracy = 4.3E-12, # of iterations =  42

     total cpu time spent up to now is     5029.3 secs

     total energy              =   -3437.58627391 Ry
     estimated scf accuracy    <       0.00000015 Ry
     electrostatic embedding   =      -0.04309517 Ry
     cavitation energy         =       0.02119750 Ry
     PV energy                 =      -0.08571727 Ry
     correction to one-el term =     185.64747347 Ry

     iteration # 28     ecut=    50.00 Ry     beta= 0.70
     Davidson diagonalization with overlap
     ethr =  4.05E-11,  avg # of iterations =  1.0

     negative rho (up, down):  1.380E-04 0.000E+00

     add environment contribution to local potential
     Polarization accuracy = 4.3E-12, # of iterations =  42

     total cpu time spent up to now is     5187.5 secs

     total energy              =   -3437.58627557 Ry
     estimated scf accuracy    <       0.00000014 Ry
     electrostatic embedding   =      -0.04309373 Ry
     cavitation energy         =       0.02119757 Ry
     PV energy                 =      -0.08571752 Ry
     correction to one-el term =     185.64900155 Ry

     iteration # 29     ecut=    50.00 Ry     beta= 0.70
     Davidson diagonalization with overlap
     ethr =  3.86E-11,  avg # of iterations =  2.0

     negative rho (up, down):  1.222E-04 0.000E+00

     add environment contribution to local potential
     Polarization accuracy = 4.3E-12, # of iterations =  42

     total cpu time spent up to now is     5334.3 secs

     total energy              =   -3437.58627940 Ry
     estimated scf accuracy    <       0.00000013 Ry
     electrostatic embedding   =      -0.04308881 Ry
     cavitation energy         =       0.02119740 Ry
     PV energy                 =      -0.08571795 Ry
     correction to one-el term =     185.64998906 Ry

     iteration # 30     ecut=    50.00 Ry     beta= 0.70
     Davidson diagonalization with overlap
     ethr =  3.54E-11,  avg # of iterations =  5.0

     negative rho (up, down):  1.143E-04 0.000E+00

     add environment contribution to local potential
     Polarization accuracy = 4.5E-12, # of iterations =  42

     total cpu time spent up to now is     5496.0 secs

     total energy              =   -3437.58629574 Ry
     estimated scf accuracy    <       0.00000010 Ry
     electrostatic embedding   =      -0.04309069 Ry
     cavitation energy         =       0.02119697 Ry
     PV energy                 =      -0.08571769 Ry
     correction to one-el term =     185.64867448 Ry

     iteration # 31     ecut=    50.00 Ry     beta= 0.70
     Davidson diagonalization with overlap
     ethr =  2.84E-11,  avg # of iterations =  2.0

     negative rho (up, down):  1.122E-04 0.000E+00

     add environment contribution to local potential
     Polarization accuracy = 4.5E-12, # of iterations =  42

     total cpu time spent up to now is     5669.2 secs

     total energy              =   -3437.58630099 Ry
     estimated scf accuracy    <       0.00000010 Ry
     electrostatic embedding   =      -0.04309767 Ry
     cavitation energy         =       0.02119722 Ry
     PV energy                 =      -0.08571711 Ry
     correction to one-el term =     185.64581907 Ry

     iteration # 32     ecut=    50.00 Ry     beta= 0.70
     Davidson diagonalization with overlap
     ethr =  2.66E-11,  avg # of iterations =  1.0

     negative rho (up, down):  1.114E-04 0.000E+00

     add environment contribution to local potential
     Polarization accuracy = 4.5E-12, # of iterations =  42

     total cpu time spent up to now is     5845.3 secs

     total energy              =   -3437.58630317 Ry
     estimated scf accuracy    <       0.00000009 Ry
     electrostatic embedding   =      -0.04309553 Ry
     cavitation energy         =       0.02119738 Ry
     PV energy                 =      -0.08571724 Ry
     correction to one-el term =     185.64565781 Ry

     iteration # 33     ecut=    50.00 Ry     beta= 0.70
     Davidson diagonalization with overlap
     ethr =  2.57E-11,  avg # of iterations =  1.0

     negative rho (up, down):  1.122E-04 0.000E+00

     add environment contribution to local potential
     Polarization accuracy = 4.5E-12, # of iterations =  42

     total cpu time spent up to now is     6019.5 secs

     total energy              =   -3437.58630393 Ry
     estimated scf accuracy    <       0.00000009 Ry
     electrostatic embedding   =      -0.04309644 Ry
     cavitation energy         =       0.02119749 Ry
     PV energy                 =      -0.08571718 Ry
     correction to one-el term =     185.64519923 Ry

     iteration # 34     ecut=    50.00 Ry     beta= 0.70
     Davidson diagonalization with overlap
     ethr =  2.57E-11,  avg # of iterations =  1.0

     negative rho (up, down):  1.125E-04 0.000E+00

     add environment contribution to local potential
     Polarization accuracy = 4.5E-12, # of iterations =  42

     total cpu time spent up to now is     6181.0 secs

     total energy              =   -3437.58630410 Ry
     estimated scf accuracy    <       0.00000009 Ry
     electrostatic embedding   =      -0.04309547 Ry
     cavitation energy         =       0.02119754 Ry
     PV energy                 =      -0.08571729 Ry
     correction to one-el term =     185.64531612 Ry

     iteration # 35     ecut=    50.00 Ry     beta= 0.70
     Davidson diagonalization with overlap
     ethr =  2.56E-11,  avg # of iterations =  1.0

     negative rho (up, down):  1.122E-04 0.000E+00

     add environment contribution to local potential
     Polarization accuracy = 4.5E-12, # of iterations =  42

     total cpu time spent up to now is     6339.1 secs

     total energy              =   -3437.58630415 Ry
     estimated scf accuracy    <       0.00000009 Ry
     electrostatic embedding   =      -0.04309488 Ry
     cavitation energy         =       0.02119755 Ry
     PV energy                 =      -0.08571735 Ry
     correction to one-el term =     185.64545916 Ry

     iteration # 36     ecut=    50.00 Ry     beta= 0.70
     Davidson diagonalization with overlap
     ethr =  2.56E-11,  avg # of iterations =  1.0

     negative rho (up, down):  1.121E-04 0.000E+00

     add environment contribution to local potential
     Polarization accuracy = 4.5E-12, # of iterations =  42

     total cpu time spent up to now is     6479.2 secs

     total energy              =   -3437.58630413 Ry
     estimated scf accuracy    <       0.00000009 Ry
     electrostatic embedding   =      -0.04309483 Ry
     cavitation energy         =       0.02119754 Ry
     PV energy                 =      -0.08571737 Ry
     correction to one-el term =     185.64545817 Ry

     iteration # 37     ecut=    50.00 Ry     beta= 0.70
     Davidson diagonalization with overlap
     ethr =  2.56E-11,  avg # of iterations =  1.0

     negative rho (up, down):  1.120E-04 0.000E+00

     add environment contribution to local potential
     Polarization accuracy = 4.5E-12, # of iterations =  42

     total cpu time spent up to now is     6624.8 secs

     total energy              =   -3437.58630415 Ry
     estimated scf accuracy    <       0.00000009 Ry
     electrostatic embedding   =      -0.04309500 Ry
     cavitation energy         =       0.02119754 Ry
     PV energy                 =      -0.08571736 Ry
     correction to one-el term =     185.64541536 Ry

     iteration # 38     ecut=    50.00 Ry     beta= 0.70
     Davidson diagonalization with overlap
     ethr =  2.56E-11,  avg # of iterations =  1.0

     negative rho (up, down):  1.119E-04 0.000E+00

     add environment contribution to local potential
     Polarization accuracy = 4.5E-12, # of iterations =  42

     total cpu time spent up to now is     6789.9 secs

     total energy              =   -3437.58630419 Ry
     estimated scf accuracy    <       0.00000009 Ry
     electrostatic embedding   =      -0.04309513 Ry
     cavitation energy         =       0.02119754 Ry
     PV energy                 =      -0.08571736 Ry
     correction to one-el term =     185.64538117 Ry

     iteration # 39     ecut=    50.00 Ry     beta= 0.70
     Davidson diagonalization with overlap
     ethr =  2.56E-11,  avg # of iterations =  1.0

     negative rho (up, down):  1.119E-04 0.000E+00

     add environment contribution to local potential
     Polarization accuracy = 4.5E-12, # of iterations =  42

     total cpu time spent up to now is     6946.9 secs

     total energy              =   -3437.58630418 Ry
     estimated scf accuracy    <       0.00000009 Ry
     electrostatic embedding   =      -0.04309511 Ry
     cavitation energy         =       0.02119754 Ry
     PV energy                 =      -0.08571737 Ry
     correction to one-el term =     185.64538159 Ry

     iteration # 40     ecut=    50.00 Ry     beta= 0.70
     Davidson diagonalization with overlap
     ethr =  2.56E-11,  avg # of iterations =  1.0

     negative rho (up, down):  1.120E-04 0.000E+00

     add environment contribution to local potential
     Polarization accuracy = 4.5E-12, # of iterations =  42

     total cpu time spent up to now is     7106.5 secs

     total energy              =   -3437.58630418 Ry
     estimated scf accuracy    <       0.00000009 Ry
     electrostatic embedding   =      -0.04309517 Ry
     cavitation energy         =       0.02119754 Ry
     PV energy                 =      -0.08571736 Ry
     correction to one-el term =     185.64536688 Ry

     iteration # 41     ecut=    50.00 Ry     beta= 0.70
     Davidson diagonalization with overlap
     ethr =  2.56E-11,  avg # of iterations =  1.0

     negative rho (up, down):  1.120E-04 0.000E+00

     add environment contribution to local potential
     Polarization accuracy = 4.5E-12, # of iterations =  42

     total cpu time spent up to now is     7254.0 secs

     total energy              =   -3437.58630416 Ry
     estimated scf accuracy    <       0.00000009 Ry
     electrostatic embedding   =      -0.04309509 Ry
     cavitation energy         =       0.02119754 Ry
     PV energy                 =      -0.08571737 Ry
     correction to one-el term =     185.64538981 Ry

     iteration # 42     ecut=    50.00 Ry     beta= 0.70
     Davidson diagonalization with overlap
     ethr =  2.56E-11,  avg # of iterations =  1.0

     negative rho (up, down):  1.120E-04 0.000E+00

     add environment contribution to local potential
     Polarization accuracy = 4.5E-12, # of iterations =  42

     total cpu time spent up to now is     7402.2 secs

     total energy              =   -3437.58630416 Ry
     estimated scf accuracy    <       0.00000009 Ry
     electrostatic embedding   =      -0.04309508 Ry
     cavitation energy         =       0.02119754 Ry
     PV energy                 =      -0.08571737 Ry
     correction to one-el term =     185.64539066 Ry

     iteration # 43     ecut=    50.00 Ry     beta= 0.70
     Davidson diagonalization with overlap
     ethr =  2.56E-11,  avg # of iterations =  1.0

     negative rho (up, down):  1.120E-04 0.000E+00

     add environment contribution to local potential
     Polarization accuracy = 4.5E-12, # of iterations =  42

     total cpu time spent up to now is     7550.9 secs

     total energy              =   -3437.58630415 Ry
     estimated scf accuracy    <       0.00000009 Ry
     electrostatic embedding   =      -0.04309509 Ry
     cavitation energy         =       0.02119754 Ry
     PV energy                 =      -0.08571737 Ry
     correction to one-el term =     185.64538739 Ry

     iteration # 44     ecut=    50.00 Ry     beta= 0.70
     Davidson diagonalization with overlap
     ethr =  2.56E-11,  avg # of iterations =  1.0

     negative rho (up, down):  1.120E-04 0.000E+00

     add environment contribution to local potential
     Polarization accuracy = 4.5E-12, # of iterations =  42

     total cpu time spent up to now is     7697.3 secs

     total energy              =   -3437.58630415 Ry
     estimated scf accuracy    <       0.00000009 Ry
     electrostatic embedding   =      -0.04309509 Ry
     cavitation energy         =       0.02119754 Ry
     PV energy                 =      -0.08571737 Ry
     correction to one-el term =     185.64538848 Ry

     iteration # 45     ecut=    50.00 Ry     beta= 0.70
     Davidson diagonalization with overlap
     ethr =  2.56E-11,  avg # of iterations =  1.0

     negative rho (up, down):  1.120E-04 0.000E+00

     add environment contribution to local potential
     Polarization accuracy = 4.5E-12, # of iterations =  42

     total cpu time spent up to now is     7852.1 secs

     total energy              =   -3437.58630414 Ry
     estimated scf accuracy    <       0.00000009 Ry
     electrostatic embedding   =      -0.04309511 Ry
     cavitation energy         =       0.02119754 Ry
     PV energy                 =      -0.08571736 Ry
     correction to one-el term =     185.64538173 Ry

     iteration # 46     ecut=    50.00 Ry     beta= 0.70
     Davidson diagonalization with overlap
     ethr =  2.56E-11,  avg # of iterations =  1.0

     negative rho (up, down):  1.119E-04 0.000E+00

     add environment contribution to local potential
     Polarization accuracy = 4.5E-12, # of iterations =  42

     total cpu time spent up to now is     8015.7 secs

     total energy              =   -3437.58630414 Ry
     estimated scf accuracy    <       0.00000009 Ry
     electrostatic embedding   =      -0.04309512 Ry
     cavitation energy         =       0.02119754 Ry
     PV energy                 =      -0.08571736 Ry
     correction to one-el term =     185.64537882 Ry

     iteration # 47     ecut=    50.00 Ry     beta= 0.70
     Davidson diagonalization with overlap
     ethr =  2.56E-11,  avg # of iterations =  1.0

     negative rho (up, down):  1.120E-04 0.000E+00

     add environment contribution to local potential
     Polarization accuracy = 4.5E-12, # of iterations =  42

     total cpu time spent up to now is     8201.2 secs

     total energy              =   -3437.58630414 Ry
     estimated scf accuracy    <       0.00000009 Ry
     electrostatic embedding   =      -0.04309511 Ry
     cavitation energy         =       0.02119754 Ry
     PV energy                 =      -0.08571736 Ry
     correction to one-el term =     185.64538044 Ry

     iteration # 48     ecut=    50.00 Ry     beta= 0.70
     Davidson diagonalization with overlap
     ethr =  2.56E-11,  avg # of iterations =  1.0

     negative rho (up, down):  1.120E-04 0.000E+00

     add environment contribution to local potential
     Polarization accuracy = 4.5E-12, # of iterations =  42

     total cpu time spent up to now is     8382.6 secs

     total energy              =   -3437.58630414 Ry
     estimated scf accuracy    <       0.00000009 Ry
     electrostatic embedding   =      -0.04309511 Ry
     cavitation energy         =       0.02119754 Ry
     PV energy                 =      -0.08571736 Ry
     correction to one-el term =     185.64538182 Ry

     iteration # 49     ecut=    50.00 Ry     beta= 0.70
     Davidson diagonalization with overlap
     ethr =  2.56E-11,  avg # of iterations =  1.0

     negative rho (up, down):  1.120E-04 0.000E+00

     add environment contribution to local potential
     Polarization accuracy = 4.5E-12, # of iterations =  42

     total cpu time spent up to now is     8527.7 secs

     total energy              =   -3437.58630413 Ry
     estimated scf accuracy    <       0.00000009 Ry
     electrostatic embedding   =      -0.04309511 Ry
     cavitation energy         =       0.02119754 Ry
     PV energy                 =      -0.08571736 Ry
     correction to one-el term =     185.64538356 Ry

     iteration # 50     ecut=    50.00 Ry     beta= 0.70
     Davidson diagonalization with overlap
     ethr =  2.56E-11,  avg # of iterations =  1.0

     negative rho (up, down):  1.120E-04 0.000E+00

     add environment contribution to local potential
     Polarization accuracy = 4.5E-12, # of iterations =  42

     total cpu time spent up to now is     8732.9 secs

     total energy              =   -3437.58630413 Ry
     estimated scf accuracy    <       0.00000009 Ry
     electrostatic embedding   =      -0.04309511 Ry
     cavitation energy         =       0.02119754 Ry
     PV energy                 =      -0.08571736 Ry
     correction to one-el term =     185.64538352 Ry

     iteration # 51     ecut=    50.00 Ry     beta= 0.70
     Davidson diagonalization with overlap
     ethr =  2.56E-11,  avg # of iterations =  1.0

     negative rho (up, down):  1.120E-04 0.000E+00

     add environment contribution to local potential
     Polarization accuracy = 4.3E-12, # of iterations =  43

     total cpu time spent up to now is     8880.2 secs

     total energy              =   -3437.58630413 Ry
     estimated scf accuracy    <       0.00000009 Ry
     electrostatic embedding   =      -0.04309511 Ry
     cavitation energy         =       0.02119754 Ry
     PV energy                 =      -0.08571736 Ry
     correction to one-el term =     185.64538330 Ry

     iteration # 52     ecut=    50.00 Ry     beta= 0.70
     Davidson diagonalization with overlap
     ethr =  2.56E-11,  avg # of iterations =  1.0

     negative rho (up, down):  1.120E-04 0.000E+00

     add environment contribution to local potential
     Polarization accuracy = 4.5E-12, # of iterations =  42

     total cpu time spent up to now is     9037.6 secs

     total energy              =   -3437.58630413 Ry
     estimated scf accuracy    <       0.00000009 Ry
     electrostatic embedding   =      -0.04309511 Ry
     cavitation energy         =       0.02119754 Ry
     PV energy                 =      -0.08571736 Ry
     correction to one-el term =     185.64538324 Ry

     iteration # 53     ecut=    50.00 Ry     beta= 0.70
     Davidson diagonalization with overlap
     ethr =  2.56E-11,  avg # of iterations =  1.0

     negative rho (up, down):  1.120E-04 0.000E+00

     add environment contribution to local potential
     Polarization accuracy = 4.5E-12, # of iterations =  42

     total cpu time spent up to now is     9202.1 secs

     total energy              =   -3437.58630413 Ry
     estimated scf accuracy    <       0.00000009 Ry
     electrostatic embedding   =      -0.04309511 Ry
     cavitation energy         =       0.02119754 Ry
     PV energy                 =      -0.08571736 Ry
     correction to one-el term =     185.64538327 Ry

     iteration # 54     ecut=    50.00 Ry     beta= 0.70
     Davidson diagonalization with overlap
     ethr =  2.56E-11,  avg # of iterations =  1.0

     negative rho (up, down):  1.120E-04 0.000E+00

     add environment contribution to local potential
     Polarization accuracy = 4.5E-12, # of iterations =  42

     total cpu time spent up to now is     9351.5 secs

     total energy              =   -3437.58630413 Ry
     estimated scf accuracy    <       0.00000009 Ry
     electrostatic embedding   =      -0.04309511 Ry
     cavitation energy         =       0.02119754 Ry
     PV energy                 =      -0.08571736 Ry
     correction to one-el term =     185.64538329 Ry

     iteration # 55     ecut=    50.00 Ry     beta= 0.70
     Davidson diagonalization with overlap
     ethr =  2.56E-11,  avg # of iterations =  1.0

     negative rho (up, down):  1.120E-04 0.000E+00

     add environment contribution to local potential
     Polarization accuracy = 4.5E-12, # of iterations =  42

     total cpu time spent up to now is     9499.9 secs

     total energy              =   -3437.58630413 Ry
     estimated scf accuracy    <       0.00000009 Ry
     electrostatic embedding   =      -0.04309511 Ry
     cavitation energy         =       0.02119754 Ry
     PV energy                 =      -0.08571736 Ry
     correction to one-el term =     185.64538329 Ry

     iteration # 56     ecut=    50.00 Ry     beta= 0.70
     Davidson diagonalization with overlap
     ethr =  2.56E-11,  avg # of iterations =  1.0

     negative rho (up, down):  1.120E-04 0.000E+00

     add environment contribution to local potential
     Polarization accuracy = 4.5E-12, # of iterations =  42

     total cpu time spent up to now is     9643.8 secs

     total energy              =   -3437.58630413 Ry
     estimated scf accuracy    <       0.00000009 Ry
     electrostatic embedding   =      -0.04309511 Ry
     cavitation energy         =       0.02119754 Ry
     PV energy                 =      -0.08571736 Ry
     correction to one-el term =     185.64538327 Ry

     iteration # 57     ecut=    50.00 Ry     beta= 0.70
     Davidson diagonalization with overlap
     ethr =  2.56E-11,  avg # of iterations =  1.0

     negative rho (up, down):  1.120E-04 0.000E+00

     add environment contribution to local potential
     Polarization accuracy = 4.5E-12, # of iterations =  42

     total cpu time spent up to now is     9807.1 secs

     total energy              =   -3437.58630413 Ry
     estimated scf accuracy    <       0.00000009 Ry
     electrostatic embedding   =      -0.04309511 Ry
     cavitation energy         =       0.02119754 Ry
     PV energy                 =      -0.08571736 Ry
     correction to one-el term =     185.64538328 Ry

     iteration # 58     ecut=    50.00 Ry     beta= 0.70
     Davidson diagonalization with overlap
     ethr =  2.56E-11,  avg # of iterations =  1.0

     negative rho (up, down):  1.120E-04 0.000E+00

     add environment contribution to local potential
     Polarization accuracy = 4.5E-12, # of iterations =  42

     total cpu time spent up to now is     9961.4 secs

     total energy              =   -3437.58630413 Ry
     estimated scf accuracy    <       0.00000009 Ry
     electrostatic embedding   =      -0.04309511 Ry
     cavitation energy         =       0.02119754 Ry
     PV energy                 =      -0.08571736 Ry
     correction to one-el term =     185.64538325 Ry

     iteration # 59     ecut=    50.00 Ry     beta= 0.70
     Davidson diagonalization with overlap
     ethr =  2.56E-11,  avg # of iterations =  1.0

     negative rho (up, down):  1.120E-04 0.000E+00

     add environment contribution to local potential
     Polarization accuracy = 4.5E-12, # of iterations =  42

     total cpu time spent up to now is    10130.5 secs

     total energy              =   -3437.58630413 Ry
     estimated scf accuracy    <       0.00000009 Ry
     electrostatic embedding   =      -0.04309511 Ry
     cavitation energy         =       0.02119754 Ry
     PV energy                 =      -0.08571736 Ry
     correction to one-el term =     185.64538328 Ry

     iteration # 60     ecut=    50.00 Ry     beta= 0.70
     Davidson diagonalization with overlap
     ethr =  2.56E-11,  avg # of iterations =  1.0

     negative rho (up, down):  1.120E-04 0.000E+00

     add environment contribution to local potential
     Polarization accuracy = 4.5E-12, # of iterations =  42

     total cpu time spent up to now is    10281.9 secs

     total energy              =   -3437.58630413 Ry
     estimated scf accuracy    <       0.00000009 Ry
     electrostatic embedding   =      -0.04309511 Ry
     cavitation energy         =       0.02119754 Ry
     PV energy                 =      -0.08571736 Ry
     correction to one-el term =     185.64538325 Ry

     iteration # 61     ecut=    50.00 Ry     beta= 0.70
     Davidson diagonalization with overlap
     ethr =  2.56E-11,  avg # of iterations =  1.0

     negative rho (up, down):  1.120E-04 0.000E+00

     add environment contribution to local potential
     Polarization accuracy = 4.5E-12, # of iterations =  42

     total cpu time spent up to now is    10432.1 secs

     total energy              =   -3437.58630413 Ry
     estimated scf accuracy    <       0.00000009 Ry
     electrostatic embedding   =      -0.04309511 Ry
     cavitation energy         =       0.02119754 Ry
     PV energy                 =      -0.08571736 Ry
     correction to one-el term =     185.64538328 Ry

     iteration # 62     ecut=    50.00 Ry     beta= 0.70
     Davidson diagonalization with overlap
     ethr =  2.56E-11,  avg # of iterations =  1.0

     negative rho (up, down):  1.120E-04 0.000E+00

     add environment contribution to local potential
     Polarization accuracy = 4.5E-12, # of iterations =  42

     total cpu time spent up to now is    10583.1 secs

     total energy              =   -3437.58630413 Ry
     estimated scf accuracy    <       0.00000009 Ry
     electrostatic embedding   =      -0.04309511 Ry
     cavitation energy         =       0.02119754 Ry
     PV energy                 =      -0.08571736 Ry
     correction to one-el term =     185.64538323 Ry

     iteration # 63     ecut=    50.00 Ry     beta= 0.70
     Davidson diagonalization with overlap
     ethr =  2.56E-11,  avg # of iterations =  1.0

     negative rho (up, down):  1.120E-04 0.000E+00

     add environment contribution to local potential
     Polarization accuracy = 4.5E-12, # of iterations =  42

     total cpu time spent up to now is    10753.3 secs

     total energy              =   -3437.58630413 Ry
     estimated scf accuracy    <       0.00000009 Ry
     electrostatic embedding   =      -0.04309511 Ry
     cavitation energy         =       0.02119754 Ry
     PV energy                 =      -0.08571736 Ry
     correction to one-el term =     185.64538326 Ry

     iteration # 64     ecut=    50.00 Ry     beta= 0.70
     Davidson diagonalization with overlap
     ethr =  2.56E-11,  avg # of iterations =  1.0

     negative rho (up, down):  1.120E-04 0.000E+00

     add environment contribution to local potential
     Polarization accuracy = 4.5E-12, # of iterations =  42

     total cpu time spent up to now is    10913.5 secs

     total energy              =   -3437.58630413 Ry
     estimated scf accuracy    <       0.00000009 Ry
     electrostatic embedding   =      -0.04309511 Ry
     cavitation energy         =       0.02119754 Ry
     PV energy                 =      -0.08571736 Ry
     correction to one-el term =     185.64538328 Ry

     iteration # 65     ecut=    50.00 Ry     beta= 0.70
     Davidson diagonalization with overlap
     ethr =  2.56E-11,  avg # of iterations =  1.0

     negative rho (up, down):  1.120E-04 0.000E+00

     add environment contribution to local potential
     Polarization accuracy = 4.5E-12, # of iterations =  42

     total cpu time spent up to now is    11060.6 secs

     total energy              =   -3437.58630413 Ry
     estimated scf accuracy    <       0.00000009 Ry
     electrostatic embedding   =      -0.04309511 Ry
     cavitation energy         =       0.02119754 Ry
     PV energy                 =      -0.08571736 Ry
     correction to one-el term =     185.64538330 Ry

     iteration # 66     ecut=    50.00 Ry     beta= 0.70
     Davidson diagonalization with overlap
     ethr =  2.56E-11,  avg # of iterations =  1.0

     negative rho (up, down):  1.120E-04 0.000E+00

     add environment contribution to local potential
     Polarization accuracy = 4.7E-12, # of iterations =  44

     total cpu time spent up to now is    11219.3 secs

     total energy              =   -3437.58630413 Ry
     estimated scf accuracy    <       0.00000009 Ry
     electrostatic embedding   =      -0.04309511 Ry
     cavitation energy         =       0.02119754 Ry
     PV energy                 =      -0.08571736 Ry
     correction to one-el term =     185.64538329 Ry

     iteration # 67     ecut=    50.00 Ry     beta= 0.70
     Davidson diagonalization with overlap
     ethr =  2.56E-11,  avg # of iterations =  1.0

     negative rho (up, down):  1.120E-04 0.000E+00

     add environment contribution to local potential
     Polarization accuracy = 4.5E-12, # of iterations =  42

     total cpu time spent up to now is    11380.0 secs

     total energy              =   -3437.58630413 Ry
     estimated scf accuracy    <       0.00000009 Ry
     electrostatic embedding   =      -0.04309511 Ry
     cavitation energy         =       0.02119754 Ry
     PV energy                 =      -0.08571736 Ry
     correction to one-el term =     185.64538325 Ry

     iteration # 68     ecut=    50.00 Ry     beta= 0.70
     Davidson diagonalization with overlap
     ethr =  2.56E-11,  avg # of iterations =  1.0

     negative rho (up, down):  1.120E-04 0.000E+00

     add environment contribution to local potential
     Polarization accuracy = 4.5E-12, # of iterations =  42

     total cpu time spent up to now is    11546.1 secs

     total energy              =   -3437.58630413 Ry
     estimated scf accuracy    <       0.00000009 Ry
     electrostatic embedding   =      -0.04309511 Ry
     cavitation energy         =       0.02119754 Ry
     PV energy                 =      -0.08571736 Ry
     correction to one-el term =     185.64538304 Ry

     iteration # 69     ecut=    50.00 Ry     beta= 0.70
     Davidson diagonalization with overlap
     ethr =  2.56E-11,  avg # of iterations =  1.0

     negative rho (up, down):  1.120E-04 0.000E+00

     add environment contribution to local potential
     Polarization accuracy = 4.3E-12, # of iterations =  43

     total cpu time spent up to now is    11715.9 secs

     total energy              =   -3437.58630413 Ry
     estimated scf accuracy    <       0.00000009 Ry
     electrostatic embedding   =      -0.04309511 Ry
     cavitation energy         =       0.02119754 Ry
     PV energy                 =      -0.08571736 Ry
     correction to one-el term =     185.64538314 Ry

     iteration # 70     ecut=    50.00 Ry     beta= 0.70
     Davidson diagonalization with overlap
     ethr =  2.56E-11,  avg # of iterations =  1.0

     negative rho (up, down):  1.120E-04 0.000E+00

     add environment contribution to local potential
     Polarization accuracy = 4.5E-12, # of iterations =  42

     total cpu time spent up to now is    11873.5 secs

     total energy              =   -3437.58630413 Ry
     estimated scf accuracy    <       0.00000009 Ry
     electrostatic embedding   =      -0.04309511 Ry
     cavitation energy         =       0.02119754 Ry
     PV energy                 =      -0.08571736 Ry
     correction to one-el term =     185.64538331 Ry

     iteration # 71     ecut=    50.00 Ry     beta= 0.70
     Davidson diagonalization with overlap
     ethr =  2.56E-11,  avg # of iterations =  1.0

     negative rho (up, down):  1.120E-04 0.000E+00

     add environment contribution to local potential
     Polarization accuracy = 4.5E-12, # of iterations =  42

     total cpu time spent up to now is    12046.4 secs

     total energy              =   -3437.58630413 Ry
     estimated scf accuracy    <       0.00000009 Ry
     electrostatic embedding   =      -0.04309511 Ry
     cavitation energy         =       0.02119754 Ry
     PV energy                 =      -0.08571736 Ry
     correction to one-el term =     185.64538346 Ry

     iteration # 72     ecut=    50.00 Ry     beta= 0.70
     Davidson diagonalization with overlap
     ethr =  2.56E-11,  avg # of iterations =  1.0

     negative rho (up, down):  1.120E-04 0.000E+00

     add environment contribution to local potential
     Polarization accuracy = 4.5E-12, # of iterations =  42

     total cpu time spent up to now is    12220.6 secs

     total energy              =   -3437.58630413 Ry
     estimated scf accuracy    <       0.00000009 Ry
     electrostatic embedding   =      -0.04309511 Ry
     cavitation energy         =       0.02119754 Ry
     PV energy                 =      -0.08571736 Ry
     correction to one-el term =     185.64538340 Ry

     iteration # 73     ecut=    50.00 Ry     beta= 0.70
     Davidson diagonalization with overlap
     ethr =  2.56E-11,  avg # of iterations =  1.0

     negative rho (up, down):  1.120E-04 0.000E+00

     add environment contribution to local potential
     Polarization accuracy = 4.5E-12, # of iterations =  42

     total cpu time spent up to now is    12384.3 secs

     total energy              =   -3437.58630413 Ry
     estimated scf accuracy    <       0.00000009 Ry
     electrostatic embedding   =      -0.04309511 Ry
     cavitation energy         =       0.02119754 Ry
     PV energy                 =      -0.08571736 Ry
     correction to one-el term =     185.64538327 Ry

     iteration # 74     ecut=    50.00 Ry     beta= 0.70
     Davidson diagonalization with overlap
     ethr =  2.56E-11,  avg # of iterations =  1.0

     negative rho (up, down):  1.120E-04 0.000E+00

     add environment contribution to local potential
     Polarization accuracy = 4.5E-12, # of iterations =  42

     total cpu time spent up to now is    12549.3 secs

     total energy              =   -3437.58630413 Ry
     estimated scf accuracy    <       0.00000009 Ry
     electrostatic embedding   =      -0.04309511 Ry
     cavitation energy         =       0.02119754 Ry
     PV energy                 =      -0.08571736 Ry
     correction to one-el term =     185.64538327 Ry

     iteration # 75     ecut=    50.00 Ry     beta= 0.70
     Davidson diagonalization with overlap
     ethr =  2.56E-11,  avg # of iterations =  1.0

     negative rho (up, down):  1.120E-04 0.000E+00

     add environment contribution to local potential
     Polarization accuracy = 4.5E-12, # of iterations =  42

     total cpu time spent up to now is    12692.2 secs

     total energy              =   -3437.58630413 Ry
     estimated scf accuracy    <       0.00000009 Ry
     electrostatic embedding   =      -0.04309511 Ry
     cavitation energy         =       0.02119754 Ry
     PV energy                 =      -0.08571736 Ry
     correction to one-el term =     185.64538331 Ry

     iteration # 76     ecut=    50.00 Ry     beta= 0.70
     Davidson diagonalization with overlap
     ethr =  2.56E-11,  avg # of iterations =  1.0

     negative rho (up, down):  1.120E-04 0.000E+00

     add environment contribution to local potential
     Polarization accuracy = 4.5E-12, # of iterations =  42

     total cpu time spent up to now is    12832.0 secs

     total energy              =   -3437.58630413 Ry
     estimated scf accuracy    <       0.00000009 Ry
     electrostatic embedding   =      -0.04309511 Ry
     cavitation energy         =       0.02119754 Ry
     PV energy                 =      -0.08571736 Ry
     correction to one-el term =     185.64538325 Ry

     iteration # 77     ecut=    50.00 Ry     beta= 0.70
     Davidson diagonalization with overlap
     ethr =  2.56E-11,  avg # of iterations =  1.0

     negative rho (up, down):  1.120E-04 0.000E+00

     add environment contribution to local potential
     Polarization accuracy = 4.5E-12, # of iterations =  42

     total cpu time spent up to now is    13021.3 secs

     total energy              =   -3437.58630413 Ry
     estimated scf accuracy    <       0.00000009 Ry
     electrostatic embedding   =      -0.04309511 Ry
     cavitation energy         =       0.02119754 Ry
     PV energy                 =      -0.08571736 Ry
     correction to one-el term =     185.64538326 Ry

     iteration # 78     ecut=    50.00 Ry     beta= 0.70
     Davidson diagonalization with overlap
     ethr =  2.56E-11,  avg # of iterations =  1.0

     negative rho (up, down):  1.120E-04 0.000E+00

     add environment contribution to local potential
     Polarization accuracy = 4.5E-12, # of iterations =  42

     total cpu time spent up to now is    13203.8 secs

     total energy              =   -3437.58630413 Ry
     estimated scf accuracy    <       0.00000009 Ry
     electrostatic embedding   =      -0.04309511 Ry
     cavitation energy         =       0.02119754 Ry
     PV energy                 =      -0.08571736 Ry
     correction to one-el term =     185.64538327 Ry

     iteration # 79     ecut=    50.00 Ry     beta= 0.70
     Davidson diagonalization with overlap
     ethr =  2.56E-11,  avg # of iterations =  1.0

     negative rho (up, down):  1.120E-04 0.000E+00

     add environment contribution to local potential
     Polarization accuracy = 4.5E-12, # of iterations =  42

     total cpu time spent up to now is    13357.6 secs

     total energy              =   -3437.58630413 Ry
     estimated scf accuracy    <       0.00000009 Ry
     electrostatic embedding   =      -0.04309511 Ry
     cavitation energy         =       0.02119754 Ry
     PV energy                 =      -0.08571736 Ry
     correction to one-el term =     185.64538327 Ry

     iteration # 80     ecut=    50.00 Ry     beta= 0.70
     Davidson diagonalization with overlap
     ethr =  2.56E-11,  avg # of iterations =  1.0

     negative rho (up, down):  1.120E-04 0.000E+00

     add environment contribution to local potential
     Polarization accuracy = 4.5E-12, # of iterations =  42

     total cpu time spent up to now is    13508.2 secs

     total energy              =   -3437.58630413 Ry
     estimated scf accuracy    <       0.00000009 Ry
     electrostatic embedding   =      -0.04309511 Ry
     cavitation energy         =       0.02119754 Ry
     PV energy                 =      -0.08571736 Ry
     correction to one-el term =     185.64538327 Ry

     iteration # 81     ecut=    50.00 Ry     beta= 0.70
     Davidson diagonalization with overlap
     ethr =  2.56E-11,  avg # of iterations =  1.0

     negative rho (up, down):  1.120E-04 0.000E+00

     add environment contribution to local potential
     Polarization accuracy = 4.5E-12, # of iterations =  42

     total cpu time spent up to now is    13663.5 secs

     total energy              =   -3437.58630413 Ry
     estimated scf accuracy    <       0.00000009 Ry
     electrostatic embedding   =      -0.04309511 Ry
     cavitation energy         =       0.02119754 Ry
     PV energy                 =      -0.08571736 Ry
     correction to one-el term =     185.64538325 Ry

     iteration # 82     ecut=    50.00 Ry     beta= 0.70
     Davidson diagonalization with overlap
     ethr =  2.56E-11,  avg # of iterations =  1.0

     negative rho (up, down):  1.120E-04 0.000E+00

     add environment contribution to local potential
     Polarization accuracy = 4.5E-12, # of iterations =  42

     total cpu time spent up to now is    13830.6 secs

     total energy              =   -3437.58630413 Ry
     estimated scf accuracy    <       0.00000009 Ry
     electrostatic embedding   =      -0.04309511 Ry
     cavitation energy         =       0.02119754 Ry
     PV energy                 =      -0.08571736 Ry
     correction to one-el term =     185.64538347 Ry

     iteration # 83     ecut=    50.00 Ry     beta= 0.70
     Davidson diagonalization with overlap
     ethr =  2.56E-11,  avg # of iterations =  1.0

     negative rho (up, down):  1.120E-04 0.000E+00

     add environment contribution to local potential
     Polarization accuracy = 6.0E-12, # of iterations =  41

     total cpu time spent up to now is    13975.0 secs

     total energy              =   -3437.58630413 Ry
     estimated scf accuracy    <       0.00000009 Ry
     electrostatic embedding   =      -0.04309511 Ry
     cavitation energy         =       0.02119754 Ry
     PV energy                 =      -0.08571736 Ry
     correction to one-el term =     185.64538334 Ry

     iteration # 84     ecut=    50.00 Ry     beta= 0.70
     Davidson diagonalization with overlap
     ethr =  2.56E-11,  avg # of iterations =  1.0

     negative rho (up, down):  1.120E-04 0.000E+00

     add environment contribution to local potential
     Polarization accuracy = 4.5E-12, # of iterations =  42

     total cpu time spent up to now is    14132.4 secs

     total energy              =   -3437.58630413 Ry
     estimated scf accuracy    <       0.00000009 Ry
     electrostatic embedding   =      -0.04309511 Ry
     cavitation energy         =       0.02119754 Ry
     PV energy                 =      -0.08571736 Ry
     correction to one-el term =     185.64538148 Ry

     iteration # 85     ecut=    50.00 Ry     beta= 0.70
     Davidson diagonalization with overlap
     ethr =  2.56E-11,  avg # of iterations =  1.0

     negative rho (up, down):  1.120E-04 0.000E+00

     add environment contribution to local potential
     Polarization accuracy = 4.5E-12, # of iterations =  42

     total cpu time spent up to now is    14296.0 secs

     total energy              =   -3437.58630413 Ry
     estimated scf accuracy    <       0.00000009 Ry
     electrostatic embedding   =      -0.04309511 Ry
     cavitation energy         =       0.02119754 Ry
     PV energy                 =      -0.08571736 Ry
     correction to one-el term =     185.64538324 Ry

     iteration # 86     ecut=    50.00 Ry     beta= 0.70
     Davidson diagonalization with overlap
     ethr =  2.56E-11,  avg # of iterations =  1.0

     negative rho (up, down):  1.120E-04 0.000E+00

     add environment contribution to local potential
     Polarization accuracy = 4.5E-12, # of iterations =  42

     total cpu time spent up to now is    14434.8 secs

     total energy              =   -3437.58630413 Ry
     estimated scf accuracy    <       0.00000009 Ry
     electrostatic embedding   =      -0.04309511 Ry
     cavitation energy         =       0.02119754 Ry
     PV energy                 =      -0.08571736 Ry
     correction to one-el term =     185.64538337 Ry

     iteration # 87     ecut=    50.00 Ry     beta= 0.70
     Davidson diagonalization with overlap
     ethr =  2.56E-11,  avg # of iterations =  1.0

     negative rho (up, down):  1.120E-04 0.000E+00

     add environment contribution to local potential
     Polarization accuracy = 4.5E-12, # of iterations =  42

     total cpu time spent up to now is    14594.3 secs

     total energy              =   -3437.58630413 Ry
     estimated scf accuracy    <       0.00000009 Ry
     electrostatic embedding   =      -0.04309511 Ry
     cavitation energy         =       0.02119754 Ry
     PV energy                 =      -0.08571736 Ry
     correction to one-el term =     185.64538323 Ry

     iteration # 88     ecut=    50.00 Ry     beta= 0.70
     Davidson diagonalization with overlap
     ethr =  2.56E-11,  avg # of iterations =  1.0

     negative rho (up, down):  1.120E-04 0.000E+00

     add environment contribution to local potential
     Polarization accuracy = 4.5E-12, # of iterations =  42

     total cpu time spent up to now is    14762.8 secs

     total energy              =   -3437.58630413 Ry
     estimated scf accuracy    <       0.00000009 Ry
     electrostatic embedding   =      -0.04309511 Ry
     cavitation energy         =       0.02119754 Ry
     PV energy                 =      -0.08571736 Ry
     correction to one-el term =     185.64538328 Ry

     iteration # 89     ecut=    50.00 Ry     beta= 0.70
     Davidson diagonalization with overlap
     ethr =  2.56E-11,  avg # of iterations =  1.0

     negative rho (up, down):  1.120E-04 0.000E+00

     add environment contribution to local potential
     Polarization accuracy = 4.5E-12, # of iterations =  42

     total cpu time spent up to now is    14903.9 secs

     total energy              =   -3437.58630413 Ry
     estimated scf accuracy    <       0.00000009 Ry
     electrostatic embedding   =      -0.04309511 Ry
     cavitation energy         =       0.02119754 Ry
     PV energy                 =      -0.08571736 Ry
     correction to one-el term =     185.64538334 Ry

     iteration # 90     ecut=    50.00 Ry     beta= 0.70
     Davidson diagonalization with overlap
     ethr =  2.56E-11,  avg # of iterations =  1.0

     negative rho (up, down):  1.120E-04 0.000E+00

     add environment contribution to local potential
     Polarization accuracy = 4.5E-12, # of iterations =  42

     total cpu time spent up to now is    15053.8 secs

     total energy              =   -3437.58630413 Ry
     estimated scf accuracy    <       0.00000009 Ry
     electrostatic embedding   =      -0.04309511 Ry
     cavitation energy         =       0.02119754 Ry
     PV energy                 =      -0.08571736 Ry
     correction to one-el term =     185.64538338 Ry

     iteration # 91     ecut=    50.00 Ry     beta= 0.70
     Davidson diagonalization with overlap
     ethr =  2.56E-11,  avg # of iterations =  1.0

     negative rho (up, down):  1.120E-04 0.000E+00

     add environment contribution to local potential
     Polarization accuracy = 4.5E-12, # of iterations =  42

     total cpu time spent up to now is    15191.7 secs

     total energy              =   -3437.58630413 Ry
     estimated scf accuracy    <       0.00000009 Ry
     electrostatic embedding   =      -0.04309511 Ry
     cavitation energy         =       0.02119754 Ry
     PV energy                 =      -0.08571736 Ry
     correction to one-el term =     185.64538356 Ry

     iteration # 92     ecut=    50.00 Ry     beta= 0.70
     Davidson diagonalization with overlap
     ethr =  2.56E-11,  avg # of iterations =  1.0

     negative rho (up, down):  1.120E-04 0.000E+00

     add environment contribution to local potential
     Polarization accuracy = 4.5E-12, # of iterations =  42

     total cpu time spent up to now is    15347.6 secs

     total energy              =   -3437.58630413 Ry
     estimated scf accuracy    <       0.00000009 Ry
     electrostatic embedding   =      -0.04309511 Ry
     cavitation energy         =       0.02119754 Ry
     PV energy                 =      -0.08571736 Ry
     correction to one-el term =     185.64538377 Ry

     iteration # 93     ecut=    50.00 Ry     beta= 0.70
     Davidson diagonalization with overlap
     ethr =  2.56E-11,  avg # of iterations =  1.0

     negative rho (up, down):  1.120E-04 0.000E+00

     add environment contribution to local potential
     Polarization accuracy = 4.5E-12, # of iterations =  42

     total cpu time spent up to now is    15503.2 secs

     total energy              =   -3437.58630413 Ry
     estimated scf accuracy    <       0.00000009 Ry
     electrostatic embedding   =      -0.04309511 Ry
     cavitation energy         =       0.02119754 Ry
     PV energy                 =      -0.08571736 Ry
     correction to one-el term =     185.64538369 Ry

     iteration # 94     ecut=    50.00 Ry     beta= 0.70
     Davidson diagonalization with overlap
     ethr =  2.56E-11,  avg # of iterations =  1.0

     negative rho (up, down):  1.120E-04 0.000E+00

     add environment contribution to local potential
     Polarization accuracy = 4.5E-12, # of iterations =  42

     total cpu time spent up to now is    15663.9 secs

     total energy              =   -3437.58630413 Ry
     estimated scf accuracy    <       0.00000009 Ry
     electrostatic embedding   =      -0.04309511 Ry
     cavitation energy         =       0.02119754 Ry
     PV energy                 =      -0.08571736 Ry
     correction to one-el term =     185.64538373 Ry

     iteration # 95     ecut=    50.00 Ry     beta= 0.70
     Davidson diagonalization with overlap
     ethr =  2.56E-11,  avg # of iterations =  1.0

     negative rho (up, down):  1.120E-04 0.000E+00

     add environment contribution to local potential
     Polarization accuracy = 4.5E-12, # of iterations =  42

     total cpu time spent up to now is    15845.2 secs

     total energy              =   -3437.58630413 Ry
     estimated scf accuracy    <       0.00000009 Ry
     electrostatic embedding   =      -0.04309511 Ry
     cavitation energy         =       0.02119754 Ry
     PV energy                 =      -0.08571736 Ry
     correction to one-el term =     185.64538379 Ry

     iteration # 96     ecut=    50.00 Ry     beta= 0.70
     Davidson diagonalization with overlap
     ethr =  2.56E-11,  avg # of iterations =  1.0

     negative rho (up, down):  1.120E-04 0.000E+00

     add environment contribution to local potential
     Polarization accuracy = 4.5E-12, # of iterations =  42

     total cpu time spent up to now is    16029.7 secs

     total energy              =   -3437.58630413 Ry
     estimated scf accuracy    <       0.00000009 Ry
     electrostatic embedding   =      -0.04309511 Ry
     cavitation energy         =       0.02119754 Ry
     PV energy                 =      -0.08571736 Ry
     correction to one-el term =     185.64538379 Ry

     iteration # 97     ecut=    50.00 Ry     beta= 0.70
     Davidson diagonalization with overlap
     ethr =  2.56E-11,  avg # of iterations =  1.0

     negative rho (up, down):  1.120E-04 0.000E+00

     add environment contribution to local potential
     Polarization accuracy = 4.5E-12, # of iterations =  42

     total cpu time spent up to now is    16185.9 secs

     total energy              =   -3437.58630413 Ry
     estimated scf accuracy    <       0.00000009 Ry
     electrostatic embedding   =      -0.04309511 Ry
     cavitation energy         =       0.02119754 Ry
     PV energy                 =      -0.08571736 Ry
     correction to one-el term =     185.64538369 Ry

     iteration # 98     ecut=    50.00 Ry     beta= 0.70
     Davidson diagonalization with overlap
     ethr =  2.56E-11,  avg # of iterations =  1.0

     negative rho (up, down):  1.120E-04 0.000E+00

     add environment contribution to local potential
     Polarization accuracy = 6.2E-12, # of iterations =  42

     total cpu time spent up to now is    16363.0 secs

     total energy              =   -3437.58630413 Ry
     estimated scf accuracy    <       0.00000009 Ry
     electrostatic embedding   =      -0.04309511 Ry
     cavitation energy         =       0.02119754 Ry
     PV energy                 =      -0.08571736 Ry
     correction to one-el term =     185.64538374 Ry

     iteration # 99     ecut=    50.00 Ry     beta= 0.70
     Davidson diagonalization with overlap
     ethr =  2.56E-11,  avg # of iterations =  1.0

     negative rho (up, down):  1.120E-04 0.000E+00

     add environment contribution to local potential
     Polarization accuracy = 4.5E-12, # of iterations =  42

     total cpu time spent up to now is    16507.4 secs

     total energy              =   -3437.58630413 Ry
     estimated scf accuracy    <       0.00000009 Ry
     electrostatic embedding   =      -0.04309511 Ry
     cavitation energy         =       0.02119754 Ry
     PV energy                 =      -0.08571736 Ry
     correction to one-el term =     185.64538359 Ry

     iteration #100     ecut=    50.00 Ry     beta= 0.70
     Davidson diagonalization with overlap
[...]
     estimated scf accuracy    <       0.00000009 Ry
     electrostatic embedding   =      -0.03514636 Ry
     cavitation energy         =       0.02113154 Ry
     PV energy                 =      -0.08472638 Ry
     correction to one-el term =     186.40355938 Ry

     iteration # 50     ecut=    50.00 Ry     beta= 0.70
     Davidson diagonalization with overlap
     ethr =  2.57E-11,  avg # of iterations =  1.0

     negative rho (up, down):  1.179E-04 0.000E+00

     add environment contribution to local potential
     Polarization accuracy = 4.5E-12, # of iterations =  42

     total cpu time spent up to now is   224395.7 secs

     total energy              =   -3437.73192417 Ry
     estimated scf accuracy    <       0.00000009 Ry
     electrostatic embedding   =      -0.03514636 Ry
     cavitation energy         =       0.02113154 Ry
     PV energy                 =      -0.08472638 Ry
     correction to one-el term =     186.40355938 Ry

     iteration # 51     ecut=    50.00 Ry     beta= 0.70
     Davidson diagonalization with overlap
     ethr =  2.57E-11,  avg # of iterations =  1.0

     negative rho (up, down):  1.179E-04 0.000E+00

     add environment contribution to local potential
     Polarization accuracy = 4.5E-12, # of iterations =  42

     total cpu time spent up to now is   225199.6 secs

     total energy              =   -3437.73192417 Ry
     estimated scf accuracy    <       0.00000009 Ry
     electrostatic embedding   =      -0.03514636 Ry
     cavitation energy         =       0.02113154 Ry
     PV energy                 =      -0.08472638 Ry
     correction to one-el term =     186.40355930 Ry

     iteration # 52     ecut=    50.00 Ry     beta= 0.70
     Davidson diagonalization with overlap
     ethr =  2.57E-11,  avg # of iterations =  1.0

     negative rho (up, down):  1.179E-04 0.000E+00

     add environment contribution to local potential
     Polarization accuracy = 4.5E-12, # of iterations =  42

     total cpu time spent up to now is   226127.6 secs

     total energy              =   -3437.73192417 Ry
     estimated scf accuracy    <       0.00000009 Ry
     electrostatic embedding   =      -0.03514636 Ry
     cavitation energy         =       0.02113154 Ry
     PV energy                 =      -0.08472638 Ry
     correction to one-el term =     186.40355934 Ry

     iteration # 53     ecut=    50.00 Ry     beta= 0.70
     Davidson diagonalization with overlap
     ethr =  2.57E-11,  avg # of iterations =  1.0

     negative rho (up, down):  1.179E-04 0.000E+00

     add environment contribution to local potential
     Polarization accuracy = 4.5E-12, # of iterations =  42

     total cpu time spent up to now is   227067.5 secs

     total energy              =   -3437.73192417 Ry
     estimated scf accuracy    <       0.00000009 Ry
     electrostatic embedding   =      -0.03514636 Ry
     cavitation energy         =       0.02113154 Ry
     PV energy                 =      -0.08472638 Ry
     correction to one-el term =     186.40355936 Ry

     iteration # 54     ecut=    50.00 Ry     beta= 0.70
     Davidson diagonalization with overlap
     ethr =  2.57E-11,  avg # of iterations =  1.0

     negative rho (up, down):  1.179E-04 0.000E+00

     add environment contribution to local potential
     Polarization accuracy = 4.5E-12, # of iterations =  42

     total cpu time spent up to now is   228022.5 secs

     total energy              =   -3437.73192417 Ry
     estimated scf accuracy    <       0.00000009 Ry
     electrostatic embedding   =      -0.03514636 Ry
     cavitation energy         =       0.02113154 Ry
     PV energy                 =      -0.08472638 Ry
     correction to one-el term =     186.40355939 Ry

     iteration # 55     ecut=    50.00 Ry     beta= 0.70
     Davidson diagonalization with overlap
     ethr =  2.57E-11,  avg # of iterations =  1.0

     negative rho (up, down):  1.179E-04 0.000E+00

     add environment contribution to local potential
     Polarization accuracy = 4.5E-12, # of iterations =  42

     total cpu time spent up to now is   228713.4 secs

     total energy              =   -3437.73192417 Ry
     estimated scf accuracy    <       0.00000009 Ry
     electrostatic embedding   =      -0.03514636 Ry
     cavitation energy         =       0.02113154 Ry
     PV energy                 =      -0.08472638 Ry
     correction to one-el term =     186.40355933 Ry

     iteration # 56     ecut=    50.00 Ry     beta= 0.70
     Davidson diagonalization with overlap
     ethr =  2.57E-11,  avg # of iterations =  1.0

     negative rho (up, down):  1.179E-04 0.000E+00

     add environment contribution to local potential
     Polarization accuracy = 4.5E-12, # of iterations =  42

     total cpu time spent up to now is   229516.7 secs

     total energy              =   -3437.73192417 Ry
     estimated scf accuracy    <       0.00000009 Ry
     electrostatic embedding   =      -0.03514636 Ry
     cavitation energy         =       0.02113154 Ry
     PV energy                 =      -0.08472638 Ry
     correction to one-el term =     186.40355937 Ry

     iteration # 57     ecut=    50.00 Ry     beta= 0.70
     Davidson diagonalization with overlap
     ethr =  2.57E-11,  avg # of iterations =  1.0

     negative rho (up, down):  1.179E-04 0.000E+00

     add environment contribution to local potential
     Polarization accuracy = 4.5E-12, # of iterations =  42

     total cpu time spent up to now is   230353.3 secs

     total energy              =   -3437.73192417 Ry
     estimated scf accuracy    <       0.00000009 Ry
     electrostatic embedding   =      -0.03514636 Ry
     cavitation energy         =       0.02113154 Ry
     PV energy                 =      -0.08472638 Ry
     correction to one-el term =     186.40355948 Ry

     iteration # 58     ecut=    50.00 Ry     beta= 0.70
     Davidson diagonalization with overlap
     ethr =  2.57E-11,  avg # of iterations =  1.0

     negative rho (up, down):  1.179E-04 0.000E+00

     add environment contribution to local potential
     Polarization accuracy = 4.5E-12, # of iterations =  42

     total cpu time spent up to now is   231451.3 secs

     total energy              =   -3437.73192417 Ry
     estimated scf accuracy    <       0.00000009 Ry
     electrostatic embedding   =      -0.03514636 Ry
     cavitation energy         =       0.02113154 Ry
     PV energy                 =      -0.08472638 Ry
     correction to one-el term =     186.40355960 Ry

     iteration # 59     ecut=    50.00 Ry     beta= 0.70
     Davidson diagonalization with overlap
     ethr =  2.57E-11,  avg # of iterations =  1.0

     negative rho (up, down):  1.179E-04 0.000E+00

     add environment contribution to local potential
     Polarization accuracy = 4.5E-12, # of iterations =  42

     total cpu time spent up to now is   232301.0 secs

     total energy              =   -3437.73192417 Ry
     estimated scf accuracy    <       0.00000009 Ry
     electrostatic embedding   =      -0.03514636 Ry
     cavitation energy         =       0.02113154 Ry
     PV energy                 =      -0.08472638 Ry
     correction to one-el term =     186.40355959 Ry

     iteration # 60     ecut=    50.00 Ry     beta= 0.70
     Davidson diagonalization with overlap
     ethr =  2.57E-11,  avg # of iterations =  1.0

     negative rho (up, down):  1.179E-04 0.000E+00

     add environment contribution to local potential
     Polarization accuracy = 4.5E-12, # of iterations =  42

     total cpu time spent up to now is   232985.8 secs

     total energy              =   -3437.73192417 Ry
     estimated scf accuracy    <       0.00000009 Ry
     electrostatic embedding   =      -0.03514636 Ry
     cavitation energy         =       0.02113154 Ry
     PV energy                 =      -0.08472638 Ry
     correction to one-el term =     186.40355969 Ry

     iteration # 61     ecut=    50.00 Ry     beta= 0.70
     Davidson diagonalization with overlap
     ethr =  2.57E-11,  avg # of iterations =  1.0

     negative rho (up, down):  1.179E-04 0.000E+00

     add environment contribution to local potential
     Polarization accuracy = 4.5E-12, # of iterations =  42

     total cpu time spent up to now is   233670.5 secs

     total energy              =   -3437.73192417 Ry
     estimated scf accuracy    <       0.00000009 Ry
     electrostatic embedding   =      -0.03514636 Ry
     cavitation energy         =       0.02113154 Ry
     PV energy                 =      -0.08472638 Ry
     correction to one-el term =     186.40355979 Ry

     iteration # 62     ecut=    50.00 Ry     beta= 0.70
     Davidson diagonalization with overlap
     ethr =  2.57E-11,  avg # of iterations =  1.0

     negative rho (up, down):  1.179E-04 0.000E+00

     add environment contribution to local potential
     Polarization accuracy = 4.5E-12, # of iterations =  42

     total cpu time spent up to now is   234442.4 secs

     total energy              =   -3437.73192417 Ry
     estimated scf accuracy    <       0.00000009 Ry
     electrostatic embedding   =      -0.03514636 Ry
     cavitation energy         =       0.02113154 Ry
     PV energy                 =      -0.08472638 Ry
     correction to one-el term =     186.40355977 Ry

     iteration # 63     ecut=    50.00 Ry     beta= 0.70
     Davidson diagonalization with overlap
     ethr =  2.57E-11,  avg # of iterations =  1.0

     negative rho (up, down):  1.179E-04 0.000E+00

     add environment contribution to local potential
     Polarization accuracy = 4.5E-12, # of iterations =  42

     total cpu time spent up to now is   234956.0 secs

     total energy              =   -3437.73192417 Ry
     estimated scf accuracy    <       0.00000009 Ry
     electrostatic embedding   =      -0.03514636 Ry
     cavitation energy         =       0.02113154 Ry
     PV energy                 =      -0.08472638 Ry
     correction to one-el term =     186.40355975 Ry

     iteration # 64     ecut=    50.00 Ry     beta= 0.70
     Davidson diagonalization with overlap
     ethr =  2.57E-11,  avg # of iterations =  1.0

     negative rho (up, down):  1.179E-04 0.000E+00

     add environment contribution to local potential
     Polarization accuracy = 4.5E-12, # of iterations =  42

     total cpu time spent up to now is   235630.5 secs

     total energy              =   -3437.73192417 Ry
     estimated scf accuracy    <       0.00000009 Ry
     electrostatic embedding   =      -0.03514636 Ry
     cavitation energy         =       0.02113154 Ry
     PV energy                 =      -0.08472638 Ry
     correction to one-el term =     186.40355971 Ry

     iteration # 65     ecut=    50.00 Ry     beta= 0.70
     Davidson diagonalization with overlap
     ethr =  2.57E-11,  avg # of iterations =  1.0

     negative rho (up, down):  1.179E-04 0.000E+00

     add environment contribution to local potential
     Polarization accuracy = 4.5E-12, # of iterations =  42

     total cpu time spent up to now is   236451.7 secs

     total energy              =   -3437.73192417 Ry
     estimated scf accuracy    <       0.00000009 Ry
     electrostatic embedding   =      -0.03514636 Ry
     cavitation energy         =       0.02113154 Ry
     PV energy                 =      -0.08472638 Ry
     correction to one-el term =     186.40355976 Ry

     iteration # 66     ecut=    50.00 Ry     beta= 0.70
     Davidson diagonalization with overlap
     ethr =  2.57E-11,  avg # of iterations =  1.0

     negative rho (up, down):  1.179E-04 0.000E+00

     add environment contribution to local potential
     Polarization accuracy = 4.5E-12, # of iterations =  42

     total cpu time spent up to now is   237193.6 secs

     total energy              =   -3437.73192417 Ry
     estimated scf accuracy    <       0.00000009 Ry
     electrostatic embedding   =      -0.03514636 Ry
     cavitation energy         =       0.02113154 Ry
     PV energy                 =      -0.08472638 Ry
     correction to one-el term =     186.40355966 Ry

     iteration # 67     ecut=    50.00 Ry     beta= 0.70
     Davidson diagonalization with overlap
     ethr =  2.57E-11,  avg # of iterations =  1.0

     negative rho (up, down):  1.179E-04 0.000E+00

     add environment contribution to local potential
     Polarization accuracy = 4.5E-12, # of iterations =  42

     total cpu time spent up to now is   238125.7 secs

     total energy              =   -3437.73192417 Ry
     estimated scf accuracy    <       0.00000009 Ry
     electrostatic embedding   =      -0.03514636 Ry
     cavitation energy         =       0.02113154 Ry
     PV energy                 =      -0.08472638 Ry
     correction to one-el term =     186.40355960 Ry

     iteration # 68     ecut=    50.00 Ry     beta= 0.70
     Davidson diagonalization with overlap
     ethr =  2.57E-11,  avg # of iterations =  1.0

     negative rho (up, down):  1.179E-04 0.000E+00

     add environment contribution to local potential
     Polarization accuracy = 4.5E-12, # of iterations =  42

     total cpu time spent up to now is   238978.4 secs

     total energy              =   -3437.73192417 Ry
     estimated scf accuracy    <       0.00000009 Ry
     electrostatic embedding   =      -0.03514636 Ry
     cavitation energy         =       0.02113154 Ry
     PV energy                 =      -0.08472638 Ry
     correction to one-el term =     186.40355971 Ry

     iteration # 69     ecut=    50.00 Ry     beta= 0.70
     Davidson diagonalization with overlap
     ethr =  2.57E-11,  avg # of iterations =  1.0

     negative rho (up, down):  1.179E-04 0.000E+00

     add environment contribution to local potential
     Polarization accuracy = 4.5E-12, # of iterations =  42

     total cpu time spent up to now is   239767.6 secs

     total energy              =   -3437.73192417 Ry
     estimated scf accuracy    <       0.00000009 Ry
     electrostatic embedding   =      -0.03514636 Ry
     cavitation energy         =       0.02113154 Ry
     PV energy                 =      -0.08472638 Ry
     correction to one-el term =     186.40355973 Ry

     iteration # 70     ecut=    50.00 Ry     beta= 0.70
     Davidson diagonalization with overlap
     ethr =  2.57E-11,  avg # of iterations =  1.0

     negative rho (up, down):  1.179E-04 0.000E+00

     add environment contribution to local potential
     Polarization accuracy = 4.5E-12, # of iterations =  42

     total cpu time spent up to now is   240643.8 secs

     total energy              =   -3437.73192417 Ry
     estimated scf accuracy    <       0.00000009 Ry
     electrostatic embedding   =      -0.03514636 Ry
     cavitation energy         =       0.02113154 Ry
     PV energy                 =      -0.08472638 Ry
     correction to one-el term =     186.40355974 Ry

     iteration # 71     ecut=    50.00 Ry     beta= 0.70
     Davidson diagonalization with overlap
     ethr =  2.57E-11,  avg # of iterations =  1.0

     negative rho (up, down):  1.179E-04 0.000E+00

     add environment contribution to local potential
     Polarization accuracy = 4.5E-12, # of iterations =  42

     total cpu time spent up to now is   241442.5 secs

     total energy              =   -3437.73192417 Ry
     estimated scf accuracy    <       0.00000009 Ry
     electrostatic embedding   =      -0.03514636 Ry
     cavitation energy         =       0.02113154 Ry
     PV energy                 =      -0.08472638 Ry
     correction to one-el term =     186.40355973 Ry

     iteration # 72     ecut=    50.00 Ry     beta= 0.70
     Davidson diagonalization with overlap
     ethr =  2.57E-11,  avg # of iterations =  1.0

     negative rho (up, down):  1.179E-04 0.000E+00

     add environment contribution to local potential
     Polarization accuracy = 4.5E-12, # of iterations =  42

     total cpu time spent up to now is   242298.4 secs

     total energy              =   -3437.73192417 Ry
     estimated scf accuracy    <       0.00000009 Ry
     electrostatic embedding   =      -0.03514636 Ry
     cavitation energy         =       0.02113154 Ry
     PV energy                 =      -0.08472638 Ry
     correction to one-el term =     186.40355979 Ry

     iteration # 73     ecut=    50.00 Ry     beta= 0.70
     Davidson diagonalization with overlap
     ethr =  2.57E-11,  avg # of iterations =  1.0

     negative rho (up, down):  1.179E-04 0.000E+00

     add environment contribution to local potential
     Polarization accuracy = 4.5E-12, # of iterations =  42

     total cpu time spent up to now is   242903.8 secs

     total energy              =   -3437.73192417 Ry
     estimated scf accuracy    <       0.00000009 Ry
     electrostatic embedding   =      -0.03514636 Ry
     cavitation energy         =       0.02113154 Ry
     PV energy                 =      -0.08472638 Ry
     correction to one-el term =     186.40355973 Ry

     iteration # 74     ecut=    50.00 Ry     beta= 0.70
     Davidson diagonalization with overlap
     ethr =  2.57E-11,  avg # of iterations =  1.0

     negative rho (up, down):  1.179E-04 0.000E+00

     add environment contribution to local potential
     Polarization accuracy = 4.5E-12, # of iterations =  42

     total cpu time spent up to now is   243797.8 secs

     total energy              =   -3437.73192417 Ry
     estimated scf accuracy    <       0.00000009 Ry
     electrostatic embedding   =      -0.03514636 Ry
     cavitation energy         =       0.02113154 Ry
     PV energy                 =      -0.08472638 Ry
     correction to one-el term =     186.40355979 Ry

     iteration # 75     ecut=    50.00 Ry     beta= 0.70
     Davidson diagonalization with overlap
     ethr =  2.57E-11,  avg # of iterations =  1.0

     negative rho (up, down):  1.179E-04 0.000E+00

     add environment contribution to local potential
     Polarization accuracy = 4.5E-12, # of iterations =  42

     total cpu time spent up to now is   244660.3 secs

     total energy              =   -3437.73192417 Ry
     estimated scf accuracy    <       0.00000009 Ry
     electrostatic embedding   =      -0.03514636 Ry
     cavitation energy         =       0.02113154 Ry
     PV energy                 =      -0.08472638 Ry
     correction to one-el term =     186.40355977 Ry

     iteration # 76     ecut=    50.00 Ry     beta= 0.70
     Davidson diagonalization with overlap
     ethr =  2.57E-11,  avg # of iterations =  1.0

     negative rho (up, down):  1.179E-04 0.000E+00

     add environment contribution to local potential
     Polarization accuracy = 4.5E-12, # of iterations =  42

     total cpu time spent up to now is   245237.3 secs

     total energy              =   -3437.73192417 Ry
     estimated scf accuracy    <       0.00000009 Ry
     electrostatic embedding   =      -0.03514636 Ry
     cavitation energy         =       0.02113154 Ry
     PV energy                 =      -0.08472638 Ry
     correction to one-el term =     186.40355978 Ry

     iteration # 77     ecut=    50.00 Ry     beta= 0.70
     Davidson diagonalization with overlap
     ethr =  2.57E-11,  avg # of iterations =  1.0

     negative rho (up, down):  1.179E-04 0.000E+00

     add environment contribution to local potential
     Polarization accuracy = 4.5E-12, # of iterations =  42

     total cpu time spent up to now is   246130.7 secs

     total energy              =   -3437.73192417 Ry
     estimated scf accuracy    <       0.00000009 Ry
     electrostatic embedding   =      -0.03514636 Ry
     cavitation energy         =       0.02113154 Ry
     PV energy                 =      -0.08472638 Ry
     correction to one-el term =     186.40355976 Ry

     iteration # 78     ecut=    50.00 Ry     beta= 0.70
     Davidson diagonalization with overlap
     ethr =  2.57E-11,  avg # of iterations =  1.0

     negative rho (up, down):  1.179E-04 0.000E+00

     add environment contribution to local potential
     Polarization accuracy = 4.5E-12, # of iterations =  42
