
     Program PWSCF v.7.2 starts on 26Jul2023 at 11:23: 2 
        Git branch: heads/qe-7.2
        Last git commit: b4c5e8deeb7d1863e7553a87b45f8d22c21926a5
        Last git commit date: Mon Mar 27 16:12:09 2023 +0000
        Last git commit subject: Merge branch 'merge_fix_hubbard' into 'develop'

     This program is part of the open-source Quantum ESPRESSO suite
     for quantum simulation of materials; please cite
         "P. Giannozzi et al., J. Phys.:Condens. Matter 21 395502 (2009);
         "P. Giannozzi et al., J. Phys.:Condens. Matter 29 465901 (2017);
         "P. Giannozzi et al., J. Chem. Phys. 152 154105 (2020);
          URL http://www.quantum-espresso.org", 
     in publications or presentations arising from this work. More details at
     http://www.quantum-espresso.org/quote

     Parallel version (MPI), running on    20 processors

     MPI processes distributed on     1 nodes
     37983 MiB available memory on the printing compute node when the environment starts
 
     Reading input from RuO2-110-0-0234.in

     Current dimensions of program PWSCF are:
     Max number of different atomic species (ntypx) = 10
     Max number of k-points (npk) =  40000
     Max angular momentum in pseudopotentials (lmaxx) =  4
 
     Reading input from environ.in:
     * Environ restarting
     * setting up water environment
     * using electronic solvent mode
     * setting boundary derivatives method to SCCS default
     
     file O.pbe-n-kjpaw_psl.0.1.UPF: wavefunction(s)  2P renormalized
     Message from routine setup:
     using ibrav=0 with symmetry is DISCOURAGED, use correct ibrav instead
 
     R & G space division:  proc/nbgrp/npool/nimage =      20
     Subspace diagonalization in iterative solution of the eigenvalue problem:
     one sub-group per band group will be used
     scalapack distributed-memory algorithm (size of sub-group:  2*  2 procs)

 
     Parallelization info
     --------------------
     sticks:   dense  smooth     PW     G-vecs:    dense   smooth      PW
     Min         276     110     29                54982    13912    1877
     Max         277     111     30                54993    13923    1888
     Sum        5537    2217    585              1099789   278381   37601
 
     Using Slab Decomposition
 


     bravais-lattice index     =            0
     lattice parameter (alat)  =      12.3824  a.u.
     unit-cell volume          =    5825.9133 (a.u.)^3
     number of atoms/cell      =           48
     number of atomic types    =            3
     number of electrons       =       368.00
     number of Kohn-Sham states=          221
     kinetic-energy cutoff     =      50.0000  Ry
     charge density cutoff     =     500.0000  Ry
     scf convergence threshold =      1.0E-09
     mixing beta               =       0.7000
     number of iterations used =            8  local-TF  mixing
     energy convergence thresh.=      1.0E-04
     force convergence thresh. =      1.0E-04
     Exchange-correlation= PBE
                           (   1   4   3   4   0   0   0)
     nstep                     =          200


     ================================================================================
 
                                  Environ Setup Summary

     ================================================================================
 
     Please cite

          O. Andreussi, I. Dabo and N. Marzari, J. Chem. Phys. 136, 064102 (2012)

     in publications or presentations arising from this work.

     ================================================================================
 
     Parameters
     ==========

     compensation onset threshold      =               0.1000E+00
     static permittivity               =                    78.30
     surface tension in input (dyn/cm) =                    47.90
     surface tension in internal units =               0.6153E-04
     external pressure in input (GPa)  =                    -0.36
     external pressure in inter. units =              -0.2447E-04

     Solvent Boundary
     ================

     solvent mode                      =               electronic
     derivatives method                =                    chain
     numerical core for derivatives    =                      fft
     switching function adopted        =                     SCCS
     density limit for vacuum region   =               0.5000E-02
     density limit for bulk solvent    =               0.1000E-03

     Electrostatic Setup
     ===================

     electrostatic problem to solve    =              generalized
     numerical solver adopted          =                       cg
     type of auxiliary density adopted =                     none
     numerical core for poisson        =                      fft
     type of pbc corrections           =                parabolic
     numerical core for corrections    =                      1da

     ================================================================================
 

     celldm(1)=  12.382447  celldm(2)=   0.000000  celldm(3)=   0.000000
     celldm(4)=   0.000000  celldm(5)=   0.000000  celldm(6)=   0.000000

     crystal axes: (cart. coord. in units of alat)
               a(1) = (   1.000000   0.000000   0.000000 )  
               a(2) = (   0.000000   0.908473   0.000000 )  
               a(3) = (   0.000000   0.000000   3.377790 )  

     reciprocal axes: (cart. coord. in units 2 pi/alat)
               b(1) = (  1.000000  0.000000  0.000000 )  
               b(2) = (  0.000000  1.100748  0.000000 )  
               b(3) = (  0.000000  0.000000  0.296052 )  


     PseudoPot. # 1 for O  read from file:
     /gpfs/group/ixd4/default/Simon/pseudopotentials/materialscloud/SSSP_1.3.0_PBE_efficiency/O.pbe-n-kjpaw_psl.0.1.UPF
     MD5 check sum: 0234752ac141de4415c5fc33072bef88
     Pseudo is Projector augmented-wave + core cor, Zval =  6.0
     Generated using "atomic" code by A. Dal Corso  v.5.0.99 svn rev. 10869
     Shape of augmentation charge: BESSEL
     Using radial grid of 1095 points,  4 beta functions with: 
                l(1) =   0
                l(2) =   0
                l(3) =   1
                l(4) =   1
     Q(r) pseudized with 0 coefficients 


     PseudoPot. # 2 for Ru read from file:
     /gpfs/group/ixd4/default/Simon/pseudopotentials/materialscloud/SSSP_1.3.0_PBE_efficiency/Ru_ONCV_PBE-1.0.oncvpsp.upf
     MD5 check sum: be037bb81c227cfb9b1461a9f099f4bd
     Pseudo is Norm-conserving, Zval = 16.0
     Generated using ONCVPSP code by D. R. Hamann
     Using radial grid of 1458 points,  6 beta functions with: 
                l(1) =   0
                l(2) =   0
                l(3) =   1
                l(4) =   1
                l(5) =   2
                l(6) =   2

     PseudoPot. # 3 for H  read from file:
     /gpfs/group/ixd4/default/Simon/pseudopotentials/materialscloud/SSSP_1.3.0_PBE_efficiency/H.pbe-rrkjus_psl.1.0.0.UPF
     MD5 check sum: f52b6d4d1c606e5624b1dc7b2218f220
     Pseudo is Ultrasoft, Zval =  1.0
     Generated using "atomic" code by A. Dal Corso  v.5.1
     Using radial grid of  929 points,  2 beta functions with: 
                l(1) =   0
                l(2) =   0
     Q(r) pseudized with 0 coefficients 


     atomic species   valence    mass     pseudopotential
        O              6.00    15.99940     O ( 1.00)
        Ru            16.00   101.07000     Ru( 1.00)
        H              1.00     1.00794     H ( 1.00)

      2 Sym. Ops. (no inversion) found



   Cartesian axes

     site n.     atom                  positions (alat units)
         1           O   tau(   1) = (   0.0366874   0.4038023   0.8894445  )
         2           O   tau(   2) = (   0.4668626   0.4243270   0.9200619  )
         3           O   tau(   3) = (  -0.0033496   0.0116721   1.0055670  )
         4           O   tau(   4) = (   0.4942207   0.0003548   1.0149626  )
         5           Ru  tau(   5) = (   0.2448459  -0.0071636   1.2131158  )
         6           Ru  tau(   6) = (   0.7461415  -0.0072572   1.2100252  )
         7           O   tau(   7) = (   0.2426407   0.2659949   1.2223131  )
         8           O   tau(   8) = (   0.7512520   0.2708370   1.2086778  )
         9           Ru  tau(   9) = (   0.0008428   0.4456215   1.2199080  )
        10           Ru  tau(  10) = (   0.5001680   0.4465558   1.1872325  )
        11           O   tau(  11) = (   0.2401917   0.6277342   1.2007374  )
        12           O   tau(  12) = (   0.7525169   0.6225712   1.1928052  )
        13           O   tau(  13) = (  -0.0069500  -0.0097883   1.3914997  )
        14           O   tau(  14) = (   0.4975397  -0.0085473   1.3902178  )
        15           O   tau(  15) = (  -0.0064013   0.4554943   1.5086677  )
        16           O   tau(  16) = (   0.4917455   0.4550942   1.4896407  )
        17           Ru  tau(  17) = (  -0.0086942  -0.0013482   1.6888985  )
        18           Ru  tau(  18) = (   0.4968866  -0.0013876   1.6888985  )
        19           O   tau(  19) = (   0.2452539   0.1725762   1.6888985  )
        20           O   tau(  20) = (   0.7425586   0.1788432   1.6888985  )
        21           Ru  tau(  21) = (   0.2506428   0.4538234   1.6888985  )
        22           Ru  tau(  22) = (   0.7392137   0.4537243   1.6888985  )
        23           O   tau(  23) = (   0.2460548   0.7342250   1.6888985  )
        24           O   tau(  24) = (   0.7419649   0.7279533   1.6888985  )
        25           O   tau(  25) = (  -0.0064013   0.4554943   1.8691260  )
        26           O   tau(  26) = (   0.4917455   0.4550942   1.8881530  )
        27           O   tau(  27) = (  -0.0069500  -0.0097883   1.9862940  )
        28           O   tau(  28) = (   0.4975397  -0.0085473   1.9875759  )
        29           Ru  tau(  29) = (   0.2448459  -0.0071636   2.1646779  )
        30           Ru  tau(  30) = (   0.7461415  -0.0072572   2.1677685  )
        31           O   tau(  31) = (   0.2426407   0.2659949   2.1554806  )
        32           O   tau(  32) = (   0.7512520   0.2708370   2.1691159  )
        33           Ru  tau(  33) = (   0.0008428   0.4456215   2.1578857  )
        34           Ru  tau(  34) = (   0.5001680   0.4465558   2.1905612  )
        35           O   tau(  35) = (   0.2401917   0.6277342   2.1770563  )
        36           O   tau(  36) = (   0.7525169   0.6225712   2.1849885  )
        37           O   tau(  37) = (  -0.0033496   0.0116721   2.3722300  )
        38           O   tau(  38) = (   0.4942207   0.0003548   2.3628345  )
        39           O   tau(  39) = (   0.0366874   0.4038023   2.4883492  )
        40           O   tau(  40) = (   0.4668626   0.4243270   2.4577318  )
        41           H   tau(  41) = (   0.1929543   0.4137816   0.8721705  )
        42           H   tau(  42) = (   0.1929543   0.4137816   2.5056199  )
        43           H   tau(  43) = (   0.0077343   0.2696734   0.8788568  )
        44           H   tau(  44) = (   0.0077343   0.2696734   2.4989335  )
        45           H   tau(  45) = (   0.4930952   0.1067903   0.9225046  )
        46           H   tau(  46) = (   0.4930952   0.1067903   2.4552857  )
        47           H   tau(  47) = (  -0.0020440   0.8247927   0.9002249  )
        48           H   tau(  48) = (  -0.0020440   0.8247927   2.4775654  )

     number of k points=     2  Marzari-Vanderbilt smearing, width (Ry)=  0.0300
                       cart. coord. in units 2pi/alat
        k(    1) = (   0.2500000   0.2751871   0.0000000), wk =   1.0000000
        k(    2) = (  -0.2500000   0.2751871   0.0000000), wk =   1.0000000

     Dense  grid:  1099789 G-vectors     FFT dimensions: (  90,  81, 300)

     Smooth grid:   278381 G-vectors     FFT dimensions: (  60,  54, 192)

     Estimated max dynamical RAM per process >     180.53 MB

     Estimated total dynamical RAM >       3.53 GB

     Check: negative core charge=   -0.000001

     Initial potential from superposition of free atoms

     starting charge     367.9933, renormalised to     368.0000

     add environment contribution to local potential
     Polarization accuracy = 7.9E-12, # of iterations =  25

     negative rho (up, down):  3.071E-05 0.000E+00
     Starting wfcs are  240 randomized atomic wfcs
     Checking if some PAW data can be deallocated... 

     total cpu time spent up to now is      976.3 secs

     per-process dynamical memory:   150.7 Mb

     Self-consistent Calculation

     iteration #  1     ecut=    50.00 Ry     beta= 0.70
     Davidson diagonalization with overlap
     ethr =  1.00E-02,  avg # of iterations =  4.0

     negative rho (up, down):  2.308E-08 0.000E+00

     total cpu time spent up to now is     1324.5 secs

     total energy              =   -3435.36521990 Ry
     estimated scf accuracy    <       9.32375161 Ry
     electrostatic embedding   =      -0.00175038 Ry
     cavitation energy         =       0.01927371 Ry
     PV energy                 =      -0.08505455 Ry
     correction to one-el term =     223.71262350 Ry

     iteration #  2     ecut=    50.00 Ry     beta= 0.70
     Davidson diagonalization with overlap
     ethr =  2.53E-03,  avg # of iterations =  2.0

     total cpu time spent up to now is     1632.0 secs

     total energy              =   -3437.35029046 Ry
     estimated scf accuracy    <       1.99288465 Ry
     electrostatic embedding   =      -0.00280670 Ry
     cavitation energy         =       0.01912747 Ry
     PV energy                 =      -0.08600654 Ry
     correction to one-el term =     223.71597267 Ry

     iteration #  3     ecut=    50.00 Ry     beta= 0.70
     Davidson diagonalization with overlap
     ethr =  5.42E-04,  avg # of iterations =  2.0

     total cpu time spent up to now is     1841.6 secs

     total energy              =   -3437.53498112 Ry
     estimated scf accuracy    <       0.29614995 Ry
     electrostatic embedding   =      -0.00319304 Ry
     cavitation energy         =       0.01923528 Ry
     PV energy                 =      -0.08606642 Ry
     correction to one-el term =     223.71690976 Ry

     iteration #  4     ecut=    50.00 Ry     beta= 0.70
     Davidson diagonalization with overlap
     ethr =  8.05E-05,  avg # of iterations =  6.0

     total cpu time spent up to now is     2118.8 secs

     total energy              =   -3437.55035605 Ry
     estimated scf accuracy    <       0.42448268 Ry
     electrostatic embedding   =      -0.00337996 Ry
     cavitation energy         =       0.01951628 Ry
     PV energy                 =      -0.08551995 Ry
     correction to one-el term =     223.71698961 Ry

     iteration #  5     ecut=    50.00 Ry     beta= 0.70
     Davidson diagonalization with overlap
     ethr =  8.05E-05,  avg # of iterations =  1.0

     total cpu time spent up to now is     2340.8 secs

     total energy              =   -3437.54174137 Ry
     estimated scf accuracy    <       0.13578645 Ry
     electrostatic embedding   =      -0.00347920 Ry
     cavitation energy         =       0.01976338 Ry
     PV energy                 =      -0.08508253 Ry
     correction to one-el term =     223.71696887 Ry

     iteration #  6     ecut=    50.00 Ry     beta= 0.70
     Davidson diagonalization with overlap
     ethr =  3.69E-05,  avg # of iterations = 12.0

     total cpu time spent up to now is     6978.1 secs

     total energy              =   -3437.53310696 Ry
     estimated scf accuracy    <       0.13434689 Ry
     electrostatic embedding   =      -0.00353100 Ry
     cavitation energy         =       0.02058567 Ry
     PV energy                 =      -0.08359115 Ry
     correction to one-el term =     223.71635040 Ry

     iteration #  7     ecut=    50.00 Ry     beta= 0.70
     Davidson diagonalization with overlap
     ethr =  3.65E-05,  avg # of iterations =  4.0

     add environment contribution to local potential
     Polarization accuracy = 2.4E-12, # of iterations =  49

     total cpu time spent up to now is     7583.8 secs

     total energy              =   -3437.52543356 Ry
     estimated scf accuracy    <       0.06854615 Ry
     electrostatic embedding   =      -0.00333175 Ry
     cavitation energy         =       0.02140617 Ry
     PV energy                 =      -0.08200291 Ry
     correction to one-el term =     223.71512335 Ry

     iteration #  8     ecut=    50.00 Ry     beta= 0.70
     Davidson diagonalization with overlap
     ethr =  1.86E-05,  avg # of iterations = 10.0

     total cpu time spent up to now is     8273.0 secs

     total energy              =   -3437.55420039 Ry
     estimated scf accuracy    <       0.11894047 Ry
     electrostatic embedding   =      -0.04430047 Ry
     cavitation energy         =       0.02193814 Ry
     PV energy                 =      -0.08087707 Ry
     correction to one-el term =     178.95618431 Ry

     iteration #  9     ecut=    50.00 Ry     beta= 0.70
     Davidson diagonalization with overlap
     ethr =  1.86E-05,  avg # of iterations =  1.0

     negative rho (up, down):  7.222E-05 0.000E+00

     add environment contribution to local potential
     Polarization accuracy = 5.4E-12, # of iterations =  53

     total cpu time spent up to now is     8902.2 secs

     total energy              =   -3437.54786345 Ry
     estimated scf accuracy    <       0.04256423 Ry
     electrostatic embedding   =      -0.04430494 Ry
     cavitation energy         =       0.02193916 Ry
     PV energy                 =      -0.08078924 Ry
     correction to one-el term =     178.95646797 Ry

     iteration # 10     ecut=    50.00 Ry     beta= 0.70
     Davidson diagonalization with overlap
     ethr =  1.16E-05,  avg # of iterations =  3.0

     negative rho (up, down):  2.491E-04 0.000E+00

     add environment contribution to local potential
     Polarization accuracy = 4.2E-12, # of iterations =  52

     total cpu time spent up to now is     9556.0 secs

     total energy              =   -3437.55164383 Ry
     estimated scf accuracy    <       0.01237690 Ry
     electrostatic embedding   =      -0.04769271 Ry
     cavitation energy         =       0.02200863 Ry
     PV energy                 =      -0.08039665 Ry
     correction to one-el term =     178.27182988 Ry

     iteration # 11     ecut=    50.00 Ry     beta= 0.70
     Davidson diagonalization with overlap
     ethr =  3.36E-06,  avg # of iterations =  5.0

     negative rho (up, down):  3.636E-04 0.000E+00

     add environment contribution to local potential
     Polarization accuracy = 2.6E-12, # of iterations =  49

     total cpu time spent up to now is     9886.3 secs

     total energy              =   -3437.55354002 Ry
     estimated scf accuracy    <       0.00844810 Ry
     electrostatic embedding   =      -0.04835905 Ry
     cavitation energy         =       0.02172365 Ry
     PV energy                 =      -0.08052910 Ry
     correction to one-el term =     179.72381839 Ry

     iteration # 12     ecut=    50.00 Ry     beta= 0.70
     Davidson diagonalization with overlap
     ethr =  2.30E-06,  avg # of iterations =  5.0

     negative rho (up, down):  1.215E-03 0.000E+00

     add environment contribution to local potential
     Polarization accuracy = 2.3E-12, # of iterations =  49

     total cpu time spent up to now is    26535.6 secs

     total energy              =   -3437.55468743 Ry
     estimated scf accuracy    <       0.00457632 Ry
     electrostatic embedding   =      -0.04800903 Ry
     cavitation energy         =       0.02152551 Ry
     PV energy                 =      -0.08068575 Ry
     correction to one-el term =     181.00953141 Ry

     iteration # 13     ecut=    50.00 Ry     beta= 0.70
     Davidson diagonalization with overlap
     ethr =  1.24E-06,  avg # of iterations =  8.0

     negative rho (up, down):  4.887E-05 0.000E+00

     add environment contribution to local potential
     Polarization accuracy = 1.8E-12, # of iterations =  47

     total cpu time spent up to now is    26837.5 secs

     total energy              =   -3437.55588520 Ry
     estimated scf accuracy    <       0.00261202 Ry
     electrostatic embedding   =      -0.04900918 Ry
     cavitation energy         =       0.02144439 Ry
     PV energy                 =      -0.08072918 Ry
     correction to one-el term =     181.77259982 Ry

     iteration # 14     ecut=    50.00 Ry     beta= 0.70
     Davidson diagonalization with overlap
     ethr =  7.10E-07,  avg # of iterations =  6.5

     add environment contribution to local potential
     Polarization accuracy = 3.0E-12, # of iterations =  47

     total cpu time spent up to now is    27095.9 secs

     total energy              =   -3437.55654430 Ry
     estimated scf accuracy    <       0.00126612 Ry
     electrostatic embedding   =      -0.04724952 Ry
     cavitation energy         =       0.02128580 Ry
     PV energy                 =      -0.08096666 Ry
     correction to one-el term =     183.19071285 Ry

     iteration # 15     ecut=    50.00 Ry     beta= 0.70
     Davidson diagonalization with overlap
     ethr =  3.44E-07,  avg # of iterations =  7.0

     negative rho (up, down):  1.305E-06 0.000E+00

     add environment contribution to local potential
     Polarization accuracy = 6.4E-12, # of iterations =  45

     total cpu time spent up to now is    27381.3 secs

     total energy              =   -3437.55708109 Ry
     estimated scf accuracy    <       0.00101036 Ry
     electrostatic embedding   =      -0.04526915 Ry
     cavitation energy         =       0.02121903 Ry
     PV energy                 =      -0.08113756 Ry
     correction to one-el term =     184.58299712 Ry

     iteration # 16     ecut=    50.00 Ry     beta= 0.70
     Davidson diagonalization with overlap
     ethr =  2.75E-07,  avg # of iterations =  7.0

     negative rho (up, down):  2.224E-04 0.000E+00

     add environment contribution to local potential
     Polarization accuracy = 5.9E-12, # of iterations =  45

     total cpu time spent up to now is    27696.5 secs

     total energy              =   -3437.55726014 Ry
     estimated scf accuracy    <       0.00039946 Ry
     electrostatic embedding   =      -0.04384415 Ry
     cavitation energy         =       0.02117729 Ry
     PV energy                 =      -0.08124491 Ry
     correction to one-el term =     185.60982746 Ry

     iteration # 17     ecut=    50.00 Ry     beta= 0.70
     Davidson diagonalization with overlap
     ethr =  1.09E-07,  avg # of iterations =  7.0

     negative rho (up, down):  1.258E-03 0.000E+00

     add environment contribution to local potential
     Polarization accuracy = 8.2E-12, # of iterations =  45

     total cpu time spent up to now is    27955.1 secs

     total energy              =   -3437.55731093 Ry
     estimated scf accuracy    <       0.00017112 Ry
     electrostatic embedding   =      -0.04302342 Ry
     cavitation energy         =       0.02117884 Ry
     PV energy                 =      -0.08125448 Ry
     correction to one-el term =     185.88705457 Ry

     iteration # 18     ecut=    50.00 Ry     beta= 0.70
     Davidson diagonalization with overlap
     ethr =  4.65E-08,  avg # of iterations =  6.0

     negative rho (up, down):  1.311E-04 0.000E+00

     add environment contribution to local potential
     Polarization accuracy = 2.5E-12, # of iterations =  47

     total cpu time spent up to now is    28184.9 secs

     total energy              =   -3437.55732511 Ry
     estimated scf accuracy    <       0.00006504 Ry
     electrostatic embedding   =      -0.04251196 Ry
     cavitation energy         =       0.02119730 Ry
     PV energy                 =      -0.08122929 Ry
     correction to one-el term =     186.00194423 Ry

     iteration # 19     ecut=    50.00 Ry     beta= 0.70
     Davidson diagonalization with overlap
     ethr =  1.77E-08,  avg # of iterations =  6.0

     negative rho (up, down):  2.489E-04 0.000E+00

     add environment contribution to local potential
     Polarization accuracy = 4.4E-12, # of iterations =  46

     total cpu time spent up to now is    28433.2 secs

     total energy              =   -3437.55733030 Ry
     estimated scf accuracy    <       0.00004313 Ry
     electrostatic embedding   =      -0.04249370 Ry
     cavitation energy         =       0.02120581 Ry
     PV energy                 =      -0.08117986 Ry
     correction to one-el term =     185.94680456 Ry

     iteration # 20     ecut=    50.00 Ry     beta= 0.70
     Davidson diagonalization with overlap
     ethr =  1.17E-08,  avg # of iterations =  2.0

     negative rho (up, down):  7.490E-05 0.000E+00

     add environment contribution to local potential
     Polarization accuracy = 2.8E-12, # of iterations =  47

     total cpu time spent up to now is    28719.3 secs

     total energy              =   -3437.55733231 Ry
     estimated scf accuracy    <       0.00002084 Ry
     electrostatic embedding   =      -0.04226745 Ry
     cavitation energy         =       0.02120973 Ry
     PV energy                 =      -0.08116961 Ry
     correction to one-el term =     185.97884509 Ry

     iteration # 21     ecut=    50.00 Ry     beta= 0.70
     Davidson diagonalization with overlap
     ethr =  5.66E-09,  avg # of iterations =  2.0

     negative rho (up, down):  5.822E-05 0.000E+00

     add environment contribution to local potential
     Polarization accuracy = 5.2E-12, # of iterations =  46

     total cpu time spent up to now is    28974.8 secs

     total energy              =   -3437.55733440 Ry
     estimated scf accuracy    <       0.00000506 Ry
     electrostatic embedding   =      -0.04211165 Ry
     cavitation energy         =       0.02121359 Ry
     PV energy                 =      -0.08115498 Ry
     correction to one-el term =     185.97459140 Ry

     iteration # 22     ecut=    50.00 Ry     beta= 0.70
     Davidson diagonalization with overlap
     ethr =  1.37E-09,  avg # of iterations =  1.0

     negative rho (up, down):  1.778E-04 0.000E+00

     add environment contribution to local potential
     Polarization accuracy = 2.6E-12, # of iterations =  46

     total cpu time spent up to now is    29245.9 secs

     total energy              =   -3437.55733467 Ry
     estimated scf accuracy    <       0.00000312 Ry
     electrostatic embedding   =      -0.04210605 Ry
     cavitation energy         =       0.02121103 Ry
     PV energy                 =      -0.08115813 Ry
     correction to one-el term =     185.97190507 Ry

     iteration # 23     ecut=    50.00 Ry     beta= 0.70
     Davidson diagonalization with overlap
     ethr =  8.47E-10,  avg # of iterations =  2.0

     negative rho (up, down):  7.372E-05 0.000E+00

     add environment contribution to local potential
     Polarization accuracy = 2.4E-12, # of iterations =  47

     total cpu time spent up to now is    29517.0 secs

     total energy              =   -3437.55733547 Ry
     estimated scf accuracy    <       0.00000060 Ry
     electrostatic embedding   =      -0.04203967 Ry
     cavitation energy         =       0.02120302 Ry
     PV energy                 =      -0.08116539 Ry
     correction to one-el term =     186.00334868 Ry

     iteration # 24     ecut=    50.00 Ry     beta= 0.70
     Davidson diagonalization with overlap
     ethr =  1.64E-10,  avg # of iterations =  2.0

     negative rho (up, down):  1.442E-04 0.000E+00

     add environment contribution to local potential
     Polarization accuracy = 2.4E-12, # of iterations =  47

     total cpu time spent up to now is    29795.3 secs

     total energy              =   -3437.55733553 Ry
     estimated scf accuracy    <       0.00000044 Ry
     electrostatic embedding   =      -0.04203054 Ry
     cavitation energy         =       0.02120176 Ry
     PV energy                 =      -0.08116492 Ry
     correction to one-el term =     185.99209940 Ry

     iteration # 25     ecut=    50.00 Ry     beta= 0.70
     Davidson diagonalization with overlap
     ethr =  1.21E-10,  avg # of iterations =  2.0

     negative rho (up, down):  1.338E-04 0.000E+00

     add environment contribution to local potential
     Polarization accuracy = 2.4E-12, # of iterations =  47

     total cpu time spent up to now is    30099.5 secs

     total energy              =   -3437.55733605 Ry
     estimated scf accuracy    <       0.00000011 Ry
     electrostatic embedding   =      -0.04196981 Ry
     cavitation energy         =       0.02119894 Ry
     PV energy                 =      -0.08116655 Ry
     correction to one-el term =     186.01370696 Ry

     iteration # 26     ecut=    50.00 Ry     beta= 0.70
     Davidson diagonalization with overlap
     ethr =  2.88E-11,  avg # of iterations =  2.0

     negative rho (up, down):  1.394E-04 0.000E+00

     add environment contribution to local potential
     Polarization accuracy = 2.6E-12, # of iterations =  46

     total cpu time spent up to now is    30401.5 secs

     total energy              =   -3437.55733621 Ry
     estimated scf accuracy    <       0.00000009 Ry
     electrostatic embedding   =      -0.04196755 Ry
     cavitation energy         =       0.02119872 Ry
     PV energy                 =      -0.08116665 Ry
     correction to one-el term =     186.01275784 Ry

     iteration # 27     ecut=    50.00 Ry     beta= 0.70
     Davidson diagonalization with overlap
     ethr =  2.52E-11,  avg # of iterations =  2.0

     negative rho (up, down):  1.420E-04 0.000E+00

     add environment contribution to local potential
     Polarization accuracy = 2.4E-12, # of iterations =  47

     total cpu time spent up to now is    30621.8 secs

     total energy              =   -3437.55733642 Ry
     estimated scf accuracy    <       0.00000008 Ry
     electrostatic embedding   =      -0.04196001 Ry
     cavitation energy         =       0.02119847 Ry
     PV energy                 =      -0.08116676 Ry
     correction to one-el term =     186.01482774 Ry

     iteration # 28     ecut=    50.00 Ry     beta= 0.70
     Davidson diagonalization with overlap
     ethr =  2.05E-11,  avg # of iterations =  1.0

     negative rho (up, down):  1.415E-04 0.000E+00

     add environment contribution to local potential
     Polarization accuracy = 2.4E-12, # of iterations =  47

     total cpu time spent up to now is    30878.2 secs

     total energy              =   -3437.55733667 Ry
     estimated scf accuracy    <       0.00000007 Ry
     electrostatic embedding   =      -0.04196079 Ry
     cavitation energy         =       0.02119863 Ry
     PV energy                 =      -0.08116674 Ry
     correction to one-el term =     186.01512003 Ry

     iteration # 29     ecut=    50.00 Ry     beta= 0.70
     Davidson diagonalization with overlap
     ethr =  1.86E-11,  avg # of iterations =  1.0

     negative rho (up, down):  1.427E-04 0.000E+00

     add environment contribution to local potential
     Polarization accuracy = 2.4E-12, # of iterations =  47

     total cpu time spent up to now is    31146.8 secs

     total energy              =   -3437.55733699 Ry
     estimated scf accuracy    <       0.00000006 Ry
     electrostatic embedding   =      -0.04196081 Ry
     cavitation energy         =       0.02119877 Ry
     PV energy                 =      -0.08116664 Ry
     correction to one-el term =     186.01502709 Ry

     iteration # 30     ecut=    50.00 Ry     beta= 0.70
     Davidson diagonalization with overlap
     ethr =  1.75E-11,  avg # of iterations =  2.0

     negative rho (up, down):  1.416E-04 0.000E+00

     add environment contribution to local potential
     Polarization accuracy = 2.4E-12, # of iterations =  47

     total cpu time spent up to now is    31344.7 secs

     total energy              =   -3437.55733781 Ry
     estimated scf accuracy    <       0.00000006 Ry
     electrostatic embedding   =      -0.04195824 Ry
     cavitation energy         =       0.02119859 Ry
     PV energy                 =      -0.08116686 Ry
     correction to one-el term =     186.01563567 Ry

     iteration # 31     ecut=    50.00 Ry     beta= 0.70
     Davidson diagonalization with overlap
     ethr =  1.69E-11,  avg # of iterations =  1.0

     negative rho (up, down):  1.343E-04 0.000E+00

     add environment contribution to local potential
     Polarization accuracy = 2.4E-12, # of iterations =  47

     total cpu time spent up to now is    31506.3 secs

     total energy              =   -3437.55733858 Ry
     estimated scf accuracy    <       0.00000005 Ry
     electrostatic embedding   =      -0.04196028 Ry
     cavitation energy         =       0.02119882 Ry
     PV energy                 =      -0.08116674 Ry
     correction to one-el term =     186.01515802 Ry

     iteration # 32     ecut=    50.00 Ry     beta= 0.70
     Davidson diagonalization with overlap
     ethr =  1.42E-11,  avg # of iterations =  3.0

     negative rho (up, down):  1.302E-04 0.000E+00

     add environment contribution to local potential
     Polarization accuracy = 2.3E-12, # of iterations =  47

     total cpu time spent up to now is    32056.6 secs

     total energy              =   -3437.55734181 Ry
     estimated scf accuracy    <       0.00000004 Ry
     electrostatic embedding   =      -0.04196260 Ry
     cavitation energy         =       0.02119876 Ry
     PV energy                 =      -0.08116694 Ry
     correction to one-el term =     186.01404610 Ry

     iteration # 33     ecut=    50.00 Ry     beta= 0.70
     Davidson diagonalization with overlap
     ethr =  1.21E-11,  avg # of iterations =  2.0

     negative rho (up, down):  1.260E-04 0.000E+00

     add environment contribution to local potential
     Polarization accuracy = 2.3E-12, # of iterations =  47

     total cpu time spent up to now is    32198.0 secs

     total energy              =   -3437.55734383 Ry
     estimated scf accuracy    <       0.00000003 Ry
     electrostatic embedding   =      -0.04196538 Ry
     cavitation energy         =       0.02119879 Ry
     PV energy                 =      -0.08116705 Ry
     correction to one-el term =     186.01324572 Ry

     iteration # 34     ecut=    50.00 Ry     beta= 0.70
     Davidson diagonalization with overlap
     ethr =  8.63E-12,  avg # of iterations =  5.0

     negative rho (up, down):  1.219E-04 0.000E+00

     add environment contribution to local potential
     Polarization accuracy = 2.2E-12, # of iterations =  47

     total cpu time spent up to now is    32355.3 secs

     total energy              =   -3437.55734645 Ry
     estimated scf accuracy    <       0.00000003 Ry
     electrostatic embedding   =      -0.04196389 Ry
     cavitation energy         =       0.02119867 Ry
     PV energy                 =      -0.08116719 Ry
     correction to one-el term =     186.01311309 Ry

     iteration # 35     ecut=    50.00 Ry     beta= 0.70
     Davidson diagonalization with overlap
     ethr =  7.38E-12,  avg # of iterations =  2.0

     negative rho (up, down):  1.205E-04 0.000E+00

     add environment contribution to local potential
     Polarization accuracy = 9.6E-12, # of iterations =  45

     total cpu time spent up to now is    32512.9 secs

     total energy              =   -3437.55734885 Ry
     estimated scf accuracy    <       0.00000002 Ry
     electrostatic embedding   =      -0.04196513 Ry
     cavitation energy         =       0.02119863 Ry
     PV energy                 =      -0.08116729 Ry
     correction to one-el term =     186.01251226 Ry

     iteration # 36     ecut=    50.00 Ry     beta= 0.70
     Davidson diagonalization with overlap
     ethr =  5.37E-12,  avg # of iterations =  5.0

     negative rho (up, down):  1.222E-04 0.000E+00

     add environment contribution to local potential
     Polarization accuracy = 7.9E-12, # of iterations =  45

     total cpu time spent up to now is    32653.5 secs

     total energy              =   -3437.55735292 Ry
     estimated scf accuracy    <       0.00000002 Ry
     electrostatic embedding   =      -0.04196288 Ry
     cavitation energy         =       0.02119862 Ry
     PV energy                 =      -0.08116733 Ry
     correction to one-el term =     186.01280470 Ry

     iteration # 37     ecut=    50.00 Ry     beta= 0.70
     Davidson diagonalization with overlap
     ethr =  5.37E-12,  avg # of iterations =  2.0

     negative rho (up, down):  1.256E-04 0.000E+00

     add environment contribution to local potential
     Polarization accuracy = 7.1E-12, # of iterations =  46

     total cpu time spent up to now is    32927.3 secs

     total energy              =   -3437.55735562 Ry
     estimated scf accuracy    <          7.0E-09 Ry
     electrostatic embedding   =      -0.04195930 Ry
     cavitation energy         =       0.02119860 Ry
     PV energy                 =      -0.08116727 Ry
     correction to one-el term =     186.01351626 Ry

     iteration # 38     ecut=    50.00 Ry     beta= 0.70
     Davidson diagonalization with overlap
     ethr =  1.89E-12,  avg # of iterations =  2.0

     negative rho (up, down):  1.288E-04 0.000E+00

     add environment contribution to local potential
     Polarization accuracy = 7.3E-12, # of iterations =  45

     total cpu time spent up to now is    33082.0 secs

     total energy              =   -3437.55735615 Ry
     estimated scf accuracy    <          4.6E-09 Ry
     electrostatic embedding   =      -0.04195798 Ry
     cavitation energy         =       0.02119863 Ry
     PV energy                 =      -0.08116718 Ry
     correction to one-el term =     186.01401171 Ry

     iteration # 39     ecut=    50.00 Ry     beta= 0.70
     Davidson diagonalization with overlap
     ethr =  1.25E-12,  avg # of iterations =  3.0

     negative rho (up, down):  1.303E-04 0.000E+00

     add environment contribution to local potential
     Polarization accuracy = 6.3E-12, # of iterations =  46

     total cpu time spent up to now is    33237.4 secs

     total energy              =   -3437.55735672 Ry
     estimated scf accuracy    <          2.6E-09 Ry
     electrostatic embedding   =      -0.04195723 Ry
     cavitation energy         =       0.02119869 Ry
     PV energy                 =      -0.08116706 Ry
     correction to one-el term =     186.01437819 Ry

     iteration # 40     ecut=    50.00 Ry     beta= 0.70
     Davidson diagonalization with overlap
     ethr =  7.06E-13,  avg # of iterations =  5.0

     negative rho (up, down):  1.334E-04 0.000E+00

     add environment contribution to local potential
     Polarization accuracy = 6.3E-12, # of iterations =  46

     total cpu time spent up to now is    33396.0 secs

     total energy              =   -3437.55735772 Ry
     estimated scf accuracy    <          2.9E-09 Ry
     electrostatic embedding   =      -0.04195800 Ry
     cavitation energy         =       0.02119872 Ry
     PV energy                 =      -0.08116701 Ry
     correction to one-el term =     186.01441674 Ry

     iteration # 41     ecut=    50.00 Ry     beta= 0.70
     Davidson diagonalization with overlap
     ethr =  7.06E-13,  avg # of iterations =  1.0

     negative rho (up, down):  1.369E-04 0.000E+00

     add environment contribution to local potential
     Polarization accuracy = 7.2E-12, # of iterations =  45

     total cpu time spent up to now is    33544.7 secs

     total energy              =   -3437.55735771 Ry
     estimated scf accuracy    <          1.1E-09 Ry
     electrostatic embedding   =      -0.04195806 Ry
     cavitation energy         =       0.02119874 Ry
     PV energy                 =      -0.08116692 Ry
     correction to one-el term =     186.01469612 Ry

     iteration # 42     ecut=    50.00 Ry     beta= 0.70
     Davidson diagonalization with overlap
     ethr =  2.98E-13,  avg # of iterations =  1.0

     negative rho (up, down):  1.364E-04 0.000E+00

     the potential shift due to the Gaussian-smeared nuclei is    -1.3500 ev

     total cpu time spent up to now is    33694.9 secs

     End of self-consistent calculation

          k = 0.2500 0.2752 0.0000 ( 34780 PWs)   bands (ev):

   -77.1800 -77.1673 -76.7650 -76.7530 -76.6996 -76.6408 -76.6386 -76.6265
   -76.5090 -76.4603 -76.4480 -76.4262 -47.6337 -47.6211 -47.3311 -47.3190
   -47.2014 -47.1174 -47.1052 -47.0887 -47.0655 -47.0529 -46.8454 -46.8327
   -46.7170 -46.6742 -46.6621 -46.6369 -46.5988 -46.5864 -46.5759 -46.5633
   -46.5506 -46.5346 -46.5252 -46.5156 -46.5037 -46.4935 -46.4816 -46.4624
   -46.4366 -46.4246 -46.4200 -46.3947 -46.3715 -46.2616 -46.2553 -46.2431
   -24.9573 -24.9403 -23.5000 -23.4541 -23.2308 -23.2141 -23.1600 -23.0763
   -23.0492 -22.8861 -22.8687 -22.7009 -22.3667 -22.1887 -22.1480 -22.1271
   -22.1074 -22.0255 -21.9748 -21.9543 -21.9028 -21.8259 -21.8193 -21.7464
   -21.7226 -21.5972 -20.9978 -20.9467 -12.5969 -12.5800 -11.5831 -11.4861
   -11.4235 -11.3574 -11.3262 -11.1310 -11.0963 -10.8900 -10.8531 -10.7910
   -10.7075 -10.5167 -10.4360 -10.4207 -10.3185 -10.3015 -10.2367 -10.1324
   -10.0197  -9.9875  -9.9512  -9.8641  -9.7940  -9.7625  -9.6785  -9.6327
    -9.4397  -9.4094  -9.2782  -9.2036  -9.0916  -8.9620  -8.9547  -8.8093
    -8.7417  -8.6715  -8.6489  -8.5649  -8.4814  -8.4402  -8.3656  -8.2747
    -8.1849  -8.1801  -8.0790  -8.0130  -7.9950  -7.8625  -7.7322  -7.6409
    -7.6056  -7.5716  -7.5480  -7.4942  -7.4567  -7.4220  -7.4195  -7.3091
    -7.2989  -7.0940  -7.0770  -7.0317  -7.0066  -6.9363  -6.9235  -6.8071
    -6.7225  -6.5676  -6.5253  -6.4567  -6.3657  -6.2986  -6.2889  -6.1603
    -6.1322  -6.0715  -6.0142  -5.9178  -5.9123  -5.8021  -5.7949  -5.5786
    -4.3798  -4.3021  -4.1874  -4.1640  -4.1109  -4.0939  -4.0518  -3.9728
    -3.9590  -3.9426  -3.9267  -3.8907  -3.8379  -3.7934  -3.7529  -3.6778
    -3.6731  -3.6328  -3.5819  -3.5531  -3.4772  -3.4629  -3.2894  -3.2327
    -3.0905  -3.0825  -2.9419  -2.8365  -2.5257  -2.5233  -2.4396  -2.2642
    -2.1800  -2.1612  -1.9906  -1.8809  -1.4519  -1.3378  -1.2252  -1.2114
    -1.0435  -0.8478  -0.6715  -0.2971  -0.1251   0.0531   0.2039   0.2114
     0.5340   0.5641   0.6064   0.7858   0.9123   0.9232   1.0715   1.2772
     1.3226   1.5768   1.7042   1.7781   1.7984

          k =-0.2500 0.2752 0.0000 ( 34780 PWs)   bands (ev):

   -77.1800 -77.1673 -76.7650 -76.7530 -76.6996 -76.6408 -76.6386 -76.6265
   -76.5090 -76.4603 -76.4480 -76.4262 -47.6337 -47.6211 -47.3311 -47.3190
   -47.2014 -47.1174 -47.1051 -47.0887 -47.0656 -47.0530 -46.8453 -46.8327
   -46.7170 -46.6742 -46.6621 -46.6369 -46.5987 -46.5864 -46.5759 -46.5632
   -46.5505 -46.5347 -46.5253 -46.5157 -46.5037 -46.4935 -46.4815 -46.4624
   -46.4366 -46.4246 -46.4200 -46.3949 -46.3713 -46.2616 -46.2553 -46.2431
   -24.9574 -24.9404 -23.4981 -23.4519 -23.2355 -23.2188 -23.1596 -23.0734
   -23.0451 -22.8877 -22.8692 -22.6993 -22.3682 -22.1852 -22.1458 -22.1293
   -22.1173 -22.0237 -21.9696 -21.9554 -21.9042 -21.8262 -21.8176 -21.7461
   -21.7220 -21.5971 -20.9979 -20.9468 -12.5913 -12.5745 -11.6183 -11.5331
   -11.4153 -11.3569 -11.3082 -11.0767 -11.0385 -10.9224 -10.8871 -10.7958
   -10.7181 -10.4908 -10.4429 -10.4288 -10.3284 -10.3185 -10.1476 -10.1249
   -10.0467 -10.0384  -9.9015  -9.8820  -9.8242  -9.7854  -9.6536  -9.6184
    -9.4466  -9.4321  -9.2971  -9.2186  -9.1013  -8.9642  -8.9251  -8.7471
    -8.7187  -8.6795  -8.6460  -8.5439  -8.4590  -8.4404  -8.3794  -8.2767
    -8.2516  -8.1796  -8.0832  -8.0224  -7.9832  -7.8637  -7.7221  -7.6771
    -7.6194  -7.5736  -7.5642  -7.5035  -7.4786  -7.4060  -7.3368  -7.2819
    -7.2800  -7.0945  -7.0689  -7.0639  -6.9877  -6.9504  -6.9339  -6.8089
    -6.7623  -6.5529  -6.5493  -6.4303  -6.3466  -6.2867  -6.2717  -6.2103
    -6.1454  -6.0989  -5.9998  -5.9075  -5.8893  -5.8257  -5.7802  -5.5793
    -4.3891  -4.2964  -4.1843  -4.1754  -4.1064  -4.0902  -4.0348  -3.9660
    -3.9557  -3.9370  -3.9202  -3.8941  -3.8353  -3.8045  -3.7820  -3.6813
    -3.6520  -3.6326  -3.5834  -3.5534  -3.4889  -3.4639  -3.2738  -3.2291
    -3.0920  -3.0896  -2.9494  -2.8385  -2.5256  -2.5243  -2.4443  -2.2663
    -2.1803  -2.1554  -1.9982  -1.8659  -1.4538  -1.3500  -1.2201  -1.2034
    -1.0421  -0.8477  -0.6727  -0.2952  -0.1317   0.0545   0.2027   0.2086
     0.5382   0.5664   0.6104   0.7845   0.9167   0.9208   1.0712   1.2857
     1.3204   1.5730   1.7081   1.7721   1.7969

     the Fermi energy is    -3.2161 ev

!    total energy              =   -3437.55735795 Ry
     estimated scf accuracy    <          6.6E-10 Ry
     smearing contrib. (-TS)   =       0.07374826 Ry
     internal energy E=F+TS    =   -3437.63110621 Ry

     The total energy is F=E-TS. E is the sum of the following terms:
     one-electron contribution =  -25591.66301173 Ry
     hartree contribution      =   12788.13995496 Ry
     xc contribution           =    -450.40539075 Ry
     ewald contribution        =    9896.85269336 Ry
     one-center paw contrib.   =    -266.46841723 Ry
     electrostatic embedding   =      -0.04195837 Ry
     cavitation energy         =       0.02119876 Ry
     PV energy                 =      -0.08116683 Ry
     correction to one-el term =     186.01499162 Ry

     WARNING: you are using the parabolic pbc correction;
              the potential shift above must be added to 
              band and Fermi energies.

     convergence has been achieved in  42 iterations

     negative rho (up, down):  1.364E-04 0.000E+00

     Forces acting on atoms (cartesian axes, Ry/au):

     atom    1 type  1   force =     0.08378365    0.20408286    0.00809233
     atom    2 type  1   force =    -0.00559988   -0.00167774   -0.01434867
     atom    3 type  1   force =    -0.00171115    0.05621910    0.08032697
     atom    4 type  1   force =     0.00096276   -0.10034162    0.08445011
     atom    5 type  2   force =     0.01865314   -0.00110848   -0.01214254
     atom    6 type  2   force =    -0.01397239   -0.00238895   -0.00669397
     atom    7 type  1   force =     0.00169333    0.09052153    0.00723019
     atom    8 type  1   force =    -0.00258858    0.05927083    0.00525546
     atom    9 type  2   force =    -0.00676618   -0.00079558   -0.01991618
     atom   10 type  2   force =     0.00241546    0.00575946    0.00788650
     atom   11 type  1   force =    -0.00080636   -0.08470469   -0.00067495
     atom   12 type  1   force =     0.00164700   -0.05399053   -0.00258645
     atom   13 type  1   force =    -0.00186325   -0.00190105   -0.00327882
     atom   14 type  1   force =     0.00055341   -0.00133484    0.00527762
     atom   15 type  1   force =    -0.00045605    0.00006252    0.00697191
     atom   16 type  1   force =     0.00216199   -0.00074522    0.01301334
     atom   17 type  2   force =     0.02057894    0.00243856    0.00000000
     atom   18 type  2   force =    -0.01962522    0.00316585    0.00000000
     atom   19 type  1   force =    -0.00727535   -0.04541363    0.00000000
     atom   20 type  1   force =     0.00543292   -0.09931576    0.00000000
     atom   21 type  2   force =    -0.01184072   -0.00275005    0.00000000
     atom   22 type  2   force =     0.01594144   -0.00271911    0.00000000
     atom   23 type  1   force =    -0.00769233    0.04842806    0.00000000
     atom   24 type  1   force =     0.00614661    0.10236704    0.00000000
     atom   25 type  1   force =    -0.00045605    0.00006252   -0.00697191
     atom   26 type  1   force =     0.00216199   -0.00074522   -0.01301334
     atom   27 type  1   force =    -0.00186325   -0.00190105    0.00327882
     atom   28 type  1   force =     0.00055341   -0.00133484   -0.00527762
     atom   29 type  2   force =     0.01865314   -0.00110848    0.01214254
     atom   30 type  2   force =    -0.01397239   -0.00238895    0.00669397
     atom   31 type  1   force =     0.00169333    0.09052153   -0.00723019
     atom   32 type  1   force =    -0.00258858    0.05927083   -0.00525546
     atom   33 type  2   force =    -0.00676618   -0.00079558    0.01991618
     atom   34 type  2   force =     0.00241546    0.00575946   -0.00788650
     atom   35 type  1   force =    -0.00080636   -0.08470469    0.00067495
     atom   36 type  1   force =     0.00164700   -0.05399053    0.00258645
     atom   37 type  1   force =    -0.00171115    0.05621910   -0.08032697
     atom   38 type  1   force =     0.00096276   -0.10034162   -0.08445011
     atom   39 type  1   force =     0.08378365    0.20408286   -0.00809233
     atom   40 type  1   force =    -0.00559988   -0.00167774    0.01434867
     atom   41 type  3   force =    -0.03678425   -0.00141535    0.00270510
     atom   42 type  3   force =    -0.03678425   -0.00141535   -0.00270510
     atom   43 type  3   force =    -0.04146050   -0.19365067   -0.01682869
     atom   44 type  3   force =    -0.04146050   -0.19365067    0.01682869
     atom   45 type  3   force =    -0.00104382    0.09047683   -0.07723924
     atom   46 type  3   force =    -0.00104382    0.09047683    0.07723924
     atom   47 type  3   force =     0.00034853   -0.06543887   -0.06767190
     atom   48 type  3   force =     0.00034853   -0.06543887    0.06767190
     The non-local contrib.  to forces
     atom    1 type  1   force =     1.17632054   -1.45000087    0.24393701
     atom    2 type  1   force =    -0.03714678    0.00629320    1.05834192
     atom    3 type  1   force =     0.02039739   -1.33422929   -0.52846497
     atom    4 type  1   force =    -0.01474370    1.38874348   -0.29270389
     atom    5 type  2   force =    -0.01298880    0.00049203    0.05094114
     atom    6 type  2   force =     0.00652447    0.00043558    0.04954792
     atom    7 type  1   force =    -0.03330287   -0.05432875   -0.13004487
     atom    8 type  1   force =    -0.07582912   -0.05246997   -0.04944512
     atom    9 type  2   force =    -0.00720954    0.01099544    0.00556824
     atom   10 type  2   force =    -0.00492677    0.00074593   -0.00405670
     atom   11 type  1   force =    -0.03191214    0.04646624    0.02333945
     atom   12 type  1   force =    -0.08256620    0.04805046    0.06768624
     atom   13 type  1   force =    -0.01226614    0.04324185   -0.02352253
     atom   14 type  1   force =     0.00082416    0.01616525   -0.01086221
     atom   15 type  1   force =    -0.00137761   -0.03968800   -0.26722799
     atom   16 type  1   force =    -0.00862286   -0.04300817    0.17621630
     atom   17 type  2   force =    -0.00886531   -0.00005902    0.00000000
     atom   18 type  2   force =     0.00169255    0.00045269    0.00000000
     atom   19 type  1   force =     0.02793455    0.10482091    0.00000000
     atom   20 type  1   force =    -0.02897309    0.02790405    0.00000000
     atom   21 type  2   force =     0.00794252    0.00169947    0.00000000
     atom   22 type  2   force =    -0.02824619    0.00256613    0.00000000
     atom   23 type  1   force =     0.03568608   -0.11225461    0.00000000
     atom   24 type  1   force =    -0.03565686   -0.03522551    0.00000000
     atom   25 type  1   force =    -0.00137761   -0.03968800    0.26722799
     atom   26 type  1   force =    -0.00862286   -0.04300817   -0.17621630
     atom   27 type  1   force =    -0.01226614    0.04324185    0.02352253
     atom   28 type  1   force =     0.00082416    0.01616525    0.01086221
     atom   29 type  2   force =    -0.01298880    0.00049203   -0.05094114
     atom   30 type  2   force =     0.00652447    0.00043558   -0.04954792
     atom   31 type  1   force =    -0.03330287   -0.05432875    0.13004487
     atom   32 type  1   force =    -0.07582912   -0.05246997    0.04944512
     atom   33 type  2   force =    -0.00720954    0.01099544   -0.00556824
     atom   34 type  2   force =    -0.00492677    0.00074593    0.00405670
     atom   35 type  1   force =    -0.03191214    0.04646624   -0.02333945
     atom   36 type  1   force =    -0.08256620    0.04805046   -0.06768624
     atom   37 type  1   force =     0.02039739   -1.33422929    0.52846497
     atom   38 type  1   force =    -0.01474370    1.38874348    0.29270389
     atom   39 type  1   force =     1.17632054   -1.45000087   -0.24393701
     atom   40 type  1   force =    -0.03714678    0.00629320   -1.05834192
     atom   41 type  3   force =    -0.08586090   -0.00803780    0.01025909
     atom   42 type  3   force =    -0.08586090   -0.00803780   -0.01025909
     atom   43 type  3   force =     0.03300688    0.14020247    0.01098669
     atom   44 type  3   force =     0.03300688    0.14020247   -0.01098669
     atom   45 type  3   force =     0.00096472   -0.09839746    0.08741303
     atom   46 type  3   force =     0.00096472   -0.09839746   -0.08741303
     atom   47 type  3   force =    -0.00104436    0.08541046    0.09743620
     atom   48 type  3   force =    -0.00104436    0.08541046   -0.09743620
     The ionic contribution  to forces
     atom    1 type  1   force =    -2.97570239    4.08139079  -93.40632919
     atom    2 type  1   force =     0.80319811    0.39306592 -100.05109096
     atom    3 type  1   force =    -0.55480353    0.88464416  -91.18382824
     atom    4 type  1   force =     0.47523479   -3.55473497  -91.66685263
     atom    5 type  2   force =     0.37332502   -1.96071081 -169.82279355
     atom    6 type  2   force =    -0.41054087   -1.77931085 -171.65756932
     atom    7 type  1   force =     1.00027028    1.76514732  -60.25812867
     atom    8 type  1   force =    -0.16327076    1.42478844  -63.87350515
     atom    9 type  2   force =    -2.38566712    1.98580311 -168.45789877
     atom   10 type  2   force =     1.92528176    2.27858038 -174.86120010
     atom   11 type  1   force =     0.71311441   -1.21645526  -65.77250038
     atom   12 type  1   force =     0.11537391   -0.90757146  -68.01158366
     atom   13 type  1   force =    -0.11472288   -0.51696340  -38.41998276
     atom   14 type  1   force =     0.18033963   -0.43491442  -38.58588313
     atom   15 type  1   force =    -0.20186228    0.34078454  -24.07898283
     atom   16 type  1   force =     0.29551698    0.26620284  -27.67730773
     atom   17 type  2   force =     0.02596524    0.54911370   -0.00046110
     atom   18 type  2   force =    -0.13925206    0.64415335   -0.00045347
     atom   19 type  1   force =    -0.08066565   -0.52887041   -0.00008747
     atom   20 type  1   force =     0.05179462   -1.11290259   -0.00008221
     atom   21 type  2   force =     1.13289968   -0.20272992   -0.00026391
     atom   22 type  2   force =    -1.70561942   -0.28589925   -0.00024872
     atom   23 type  1   force =    -0.15104716    0.58187191   -0.00008569
     atom   24 type  1   force =     0.10335218    1.15963632   -0.00008176
     atom   25 type  1   force =    -0.20185556    0.34078480   24.07875077
     atom   26 type  1   force =     0.29552626    0.26620320   27.67715686
     atom   27 type  1   force =    -0.11471992   -0.51697032   38.42027341
     atom   28 type  1   force =     0.18033877   -0.43492194   38.58618056
     atom   29 type  2   force =     0.37333615   -1.96070134  169.82308181
     atom   30 type  2   force =    -0.41055111   -1.77929950  171.65785520
     atom   31 type  1   force =     1.00027024    1.76511357   60.25819366
     atom   32 type  1   force =    -0.16326926    1.42475956   63.87357488
     atom   33 type  2   force =    -2.38568139    1.98580476  168.45802199
     atom   34 type  2   force =     1.92529014    2.27858641  174.86135578
     atom   35 type  1   force =     0.71311804   -1.21642363   65.77256485
     atom   36 type  1   force =     0.11537119   -0.90754583   68.01165200
     atom   37 type  1   force =    -0.55481268    0.88486623   91.18375848
     atom   38 type  1   force =     0.47524026   -3.55502764   91.66687302
     atom   39 type  1   force =    -2.97571845    4.08142527   93.40655783
     atom   40 type  1   force =     0.80320393    0.39307183  100.05116976
     atom   41 type  3   force =     2.34974500    0.37156276  -15.74892749
     atom   42 type  3   force =     2.34976227    0.37156474   15.74890926
     atom   43 type  3   force =    -1.08757117   -3.53784134  -15.78831870
     atom   44 type  3   force =    -1.08757519   -3.53784552   15.78826634
     atom   45 type  3   force =     0.11005755    2.20572688  -17.85206407
     atom   46 type  3   force =     0.11005435    2.20600741   17.85215195
     atom   47 type  3   force =    -0.06603781   -2.49137181  -17.98478135
     atom   48 type  3   force =    -0.06603411   -2.49164802   17.98494461
     The local contribution  to forces
     atom    1 type  1   force =     1.85612636   -2.39756404   93.16778405
     atom    2 type  1   force =    -0.71415996   -0.34006804   98.91962613
     atom    3 type  1   force =     0.52032456    0.50636114   91.86599765
     atom    4 type  1   force =    -0.44719389    2.03243141   92.03195777
     atom    5 type  2   force =    -0.30531920    1.94586904  169.78891257
     atom    6 type  2   force =     0.35279771    1.75901367  171.60860454
     atom    7 type  1   force =    -0.95659992   -1.61165428   60.40152531
     atom    8 type  1   force =     0.22547123   -1.30024961   63.92292134
     atom    9 type  2   force =     2.36672590   -1.99102829  168.43700458
     atom   10 type  2   force =    -1.89277923   -2.24470135  174.81223493
     atom   11 type  1   force =    -0.66536522    1.07889594   65.74794490
     atom   12 type  1   force =    -0.05039000    0.79600896   67.92112384
     atom   13 type  1   force =     0.12307260    0.47128321   38.44571129
     atom   14 type  1   force =    -0.17877459    0.41511048   38.59904931
     atom   15 type  1   force =     0.20146074   -0.30092896   24.35012198
     atom   16 type  1   force =    -0.28339742   -0.22332072   27.51267999
     atom   17 type  2   force =     0.00173135   -0.54744840   -0.00581109
     atom   18 type  2   force =     0.11956126   -0.64273705   -0.00584921
     atom   19 type  1   force =     0.04689408    0.37911517   -0.00245047
     atom   20 type  1   force =    -0.01882726    0.98488000   -0.00247880
     atom   21 type  2   force =    -1.14929321    0.19929346   -0.00605397
     atom   22 type  2   force =     1.74654906    0.28173066   -0.00610355
     atom   23 type  1   force =     0.10932597   -0.42200113   -0.00245674
     atom   24 type  1   force =    -0.06319441   -1.02158198   -0.00248233
     atom   25 type  1   force =     0.20147917   -0.30094348  -24.35187912
     atom   26 type  1   force =    -0.28338385   -0.22333154  -27.51443944
     atom   27 type  1   force =     0.12307225    0.47128229  -38.44749344
     atom   28 type  1   force =    -0.17877340    0.41510886  -38.60082886
     atom   29 type  2   force =    -0.30530253    1.94587476 -169.79501820
     atom   30 type  2   force =     0.35278062    1.75902479 -171.61468652
     atom   31 type  1   force =    -0.95657484   -1.61164491  -60.40397189
     atom   32 type  1   force =     0.22543734   -1.30024481  -63.92539089
     atom   33 type  2   force =     2.36676685   -1.99107999 -168.44289614
     atom   34 type  2   force =    -1.89283705   -2.24475204 -174.81795394
     atom   35 type  1   force =    -0.66532853    1.07886763  -65.75040954
     atom   36 type  1   force =    -0.05042831    0.79599380  -67.92359378
     atom   37 type  1   force =     0.52033507    0.50631193  -91.86970885
     atom   38 type  1   force =    -0.44720045    2.03257018  -92.03575276
     atom   39 type  1   force =     1.85613552   -2.39757922  -93.16948394
     atom   40 type  1   force =    -0.71422578   -0.34011007  -98.92107799
     atom   41 type  3   force =    -2.29604722   -0.35872057   15.74417210
     atom   42 type  3   force =    -2.29604722   -0.35872057  -15.74417210
     atom   43 type  3   force =     1.00915336    3.21872690   15.76933349
     atom   44 type  3   force =     1.00915336    3.21872690  -15.76933349
     atom   45 type  3   force =    -0.10922162   -2.02034706   17.69644866
     atom   46 type  3   force =    -0.10922162   -2.02034706  -17.69644866
     atom   47 type  3   force =     0.06402789    2.34591128   17.85151069
     atom   48 type  3   force =     0.06402789    2.34591128  -17.85151069
     The core correction contribution to forces
     atom    1 type  1   force =    -0.01210700    0.01163483   -0.00290177
     atom    2 type  1   force =     0.00064196    0.00007938   -0.00909297
     atom    3 type  1   force =    -0.00018772    0.01294915    0.00368568
     atom    4 type  1   force =     0.00014004   -0.01273566    0.00143210
     atom    5 type  2   force =     0.00000000    0.00000000    0.00000000
     atom    6 type  2   force =     0.00000000    0.00000000    0.00000000
     atom    7 type  1   force =     0.00000934   -0.00122333    0.00122346
     atom    8 type  1   force =     0.00099187   -0.00077610    0.00057727
     atom    9 type  2   force =     0.00000000    0.00000000    0.00000000
     atom   10 type  2   force =     0.00000000    0.00000000    0.00000000
     atom   11 type  1   force =     0.00002886    0.00128851   -0.00008982
     atom   12 type  1   force =     0.00103223    0.00077850   -0.00047324
     atom   13 type  1   force =     0.00009562   -0.00045962    0.00042522
     atom   14 type  1   force =     0.00001189   -0.00012625    0.00027766
     atom   15 type  1   force =     0.00005272    0.00039496    0.00271588
     atom   16 type  1   force =     0.00008237    0.00048765   -0.00260239
     atom   17 type  2   force =     0.00000000    0.00000000    0.00000000
     atom   18 type  2   force =     0.00000000    0.00000000    0.00000000
     atom   19 type  1   force =    -0.00022434   -0.00006863   -0.00000211
     atom   20 type  1   force =     0.00023714    0.00129846   -0.00000224
     atom   21 type  2   force =     0.00000000    0.00000000    0.00000000
     atom   22 type  2   force =     0.00000000    0.00000000    0.00000000
     atom   23 type  1   force =    -0.00029241    0.00012697   -0.00000206
     atom   24 type  1   force =     0.00029812   -0.00122694   -0.00000218
     atom   25 type  1   force =     0.00005270    0.00039503   -0.00271842
     atom   26 type  1   force =     0.00008246    0.00048776    0.00260022
     atom   27 type  1   force =     0.00009561   -0.00045973   -0.00042734
     atom   28 type  1   force =     0.00001190   -0.00012639   -0.00027984
     atom   29 type  2   force =     0.00000000    0.00000000    0.00000000
     atom   30 type  2   force =     0.00000000    0.00000000    0.00000000
     atom   31 type  1   force =     0.00000937   -0.00122334   -0.00122553
     atom   32 type  1   force =     0.00099177   -0.00077597   -0.00057929
     atom   33 type  2   force =     0.00000000    0.00000000    0.00000000
     atom   34 type  2   force =     0.00000000    0.00000000    0.00000000
     atom   35 type  1   force =     0.00002899    0.00128842    0.00008768
     atom   36 type  1   force =     0.00103209    0.00077835    0.00047117
     atom   37 type  1   force =    -0.00018768    0.01295090   -0.00369038
     atom   38 type  1   force =     0.00013998   -0.01273766   -0.00143625
     atom   39 type  1   force =    -0.01210758    0.01163532    0.00290071
     atom   40 type  1   force =     0.00064182    0.00007919    0.00909082
     atom   41 type  3   force =     0.00000000    0.00000000    0.00000000
     atom   42 type  3   force =     0.00000000    0.00000000    0.00000000
     atom   43 type  3   force =     0.00000000    0.00000000    0.00000000
     atom   44 type  3   force =     0.00000000    0.00000000    0.00000000
     atom   45 type  3   force =     0.00000000    0.00000000    0.00000000
     atom   46 type  3   force =     0.00000000    0.00000000    0.00000000
     atom   47 type  3   force =     0.00000000    0.00000000    0.00000000
     atom   48 type  3   force =     0.00000000    0.00000000    0.00000000
     The Hubbard contrib.    to forces
     atom    1 type  1   force =     0.00000000    0.00000000    0.00000000
     atom    2 type  1   force =     0.00000000    0.00000000    0.00000000
     atom    3 type  1   force =     0.00000000    0.00000000    0.00000000
     atom    4 type  1   force =     0.00000000    0.00000000    0.00000000
     atom    5 type  2   force =     0.00000000    0.00000000    0.00000000
     atom    6 type  2   force =     0.00000000    0.00000000    0.00000000
     atom    7 type  1   force =     0.00000000    0.00000000    0.00000000
     atom    8 type  1   force =     0.00000000    0.00000000    0.00000000
     atom    9 type  2   force =     0.00000000    0.00000000    0.00000000
     atom   10 type  2   force =     0.00000000    0.00000000    0.00000000
     atom   11 type  1   force =     0.00000000    0.00000000    0.00000000
     atom   12 type  1   force =     0.00000000    0.00000000    0.00000000
     atom   13 type  1   force =     0.00000000    0.00000000    0.00000000
     atom   14 type  1   force =     0.00000000    0.00000000    0.00000000
     atom   15 type  1   force =     0.00000000    0.00000000    0.00000000
     atom   16 type  1   force =     0.00000000    0.00000000    0.00000000
     atom   17 type  2   force =     0.00000000    0.00000000    0.00000000
     atom   18 type  2   force =     0.00000000    0.00000000    0.00000000
     atom   19 type  1   force =     0.00000000    0.00000000    0.00000000
     atom   20 type  1   force =     0.00000000    0.00000000    0.00000000
     atom   21 type  2   force =     0.00000000    0.00000000    0.00000000
     atom   22 type  2   force =     0.00000000    0.00000000    0.00000000
     atom   23 type  1   force =     0.00000000    0.00000000    0.00000000
     atom   24 type  1   force =     0.00000000    0.00000000    0.00000000
     atom   25 type  1   force =     0.00000000    0.00000000    0.00000000
     atom   26 type  1   force =     0.00000000    0.00000000    0.00000000
     atom   27 type  1   force =     0.00000000    0.00000000    0.00000000
     atom   28 type  1   force =     0.00000000    0.00000000    0.00000000
     atom   29 type  2   force =     0.00000000    0.00000000    0.00000000
     atom   30 type  2   force =     0.00000000    0.00000000    0.00000000
     atom   31 type  1   force =     0.00000000    0.00000000    0.00000000
     atom   32 type  1   force =     0.00000000    0.00000000    0.00000000
     atom   33 type  2   force =     0.00000000    0.00000000    0.00000000
     atom   34 type  2   force =     0.00000000    0.00000000    0.00000000
     atom   35 type  1   force =     0.00000000    0.00000000    0.00000000
     atom   36 type  1   force =     0.00000000    0.00000000    0.00000000
     atom   37 type  1   force =     0.00000000    0.00000000    0.00000000
     atom   38 type  1   force =     0.00000000    0.00000000    0.00000000
     atom   39 type  1   force =     0.00000000    0.00000000    0.00000000
     atom   40 type  1   force =     0.00000000    0.00000000    0.00000000
     atom   41 type  3   force =     0.00000000    0.00000000    0.00000000
     atom   42 type  3   force =     0.00000000    0.00000000    0.00000000
     atom   43 type  3   force =     0.00000000    0.00000000    0.00000000
     atom   44 type  3   force =     0.00000000    0.00000000    0.00000000
     atom   45 type  3   force =     0.00000000    0.00000000    0.00000000
     atom   46 type  3   force =     0.00000000    0.00000000    0.00000000
     atom   47 type  3   force =     0.00000000    0.00000000    0.00000000
     atom   48 type  3   force =     0.00000000    0.00000000    0.00000000
     The SCF correction term to forces
     atom    1 type  1   force =     0.00000261   -0.00001149   -0.00000986
     atom    2 type  1   force =    -0.00000852   -0.00000462   -0.00001224
     atom    3 type  1   force =     0.00001207    0.00000684   -0.00001542
     atom    4 type  1   force =    -0.00001233    0.00000444   -0.00000852
     atom    5 type  2   force =    -0.00002526    0.00001011   -0.00002443
     atom    6 type  2   force =     0.00002542    0.00000932   -0.00001401
     atom    7 type  1   force =    -0.00001032   -0.00000653   -0.00000915
     atom    8 type  1   force =     0.00001109    0.00000273   -0.00000471
     atom    9 type  2   force =     0.00001441   -0.00001099   -0.00001932
     atom   10 type  2   force =    -0.00001502   -0.00000978   -0.00000571
     atom   11 type  1   force =    -0.00000983    0.00000406   -0.00000509
     atom   12 type  1   force =     0.00001050   -0.00000526   -0.00000249
     atom   13 type  1   force =     0.00000901    0.00000203    0.00000146
     atom   14 type  1   force =    -0.00000859    0.00000166   -0.00000476
     atom   15 type  1   force =    -0.00000072   -0.00000124    0.00000567
     atom   16 type  1   force =     0.00000017   -0.00000107    0.00000785
     atom   17 type  2   force =     0.00000463    0.00000158    0.00002465
     atom   18 type  2   force =    -0.00000317    0.00000129    0.00002463
     atom   19 type  1   force =    -0.00001297    0.00000287    0.00000914
     atom   20 type  1   force =     0.00001266    0.00000866    0.00000916
     atom   21 type  2   force =    -0.00001405   -0.00000165    0.00002441
     atom   22 type  2   force =     0.00001480   -0.00000176    0.00002444
     atom   23 type  1   force =    -0.00001295   -0.00000243    0.00000914
     atom   24 type  1   force =     0.00001269   -0.00000824    0.00000917
     atom   25 type  1   force =    -0.00000072   -0.00000126    0.00001095
     atom   26 type  1   force =     0.00000019   -0.00000108    0.00000820
     atom   27 type  1   force =     0.00000894    0.00000205    0.00001174
     atom   28 type  1   force =    -0.00000853    0.00000168    0.00001788
     atom   29 type  2   force =    -0.00002533    0.00001021    0.00003933
     atom   30 type  2   force =     0.00002549    0.00000941    0.00002853
     atom   31 type  1   force =    -0.00001040   -0.00000659    0.00001531
     atom   32 type  1   force =     0.00001113    0.00000264    0.00001019
     atom   33 type  2   force =     0.00001439   -0.00001109    0.00003506
     atom   34 type  2   force =    -0.00001496   -0.00000990    0.00001802
     atom   35 type  1   force =    -0.00000990    0.00000408    0.00001019
     atom   36 type  1   force =     0.00001053   -0.00000520    0.00000716
     atom   37 type  1   force =     0.00001204    0.00000689    0.00001298
     atom   38 type  1   force =    -0.00001229    0.00000458    0.00000629
     atom   39 type  1   force =     0.00000275   -0.00001163    0.00000489
     atom   40 type  1   force =    -0.00000860   -0.00000468    0.00000761
     atom   41 type  3   force =    -0.00000219   -0.00000116   -0.00000122
     atom   42 type  3   force =    -0.00000225   -0.00000118    0.00000037
     atom   43 type  3   force =     0.00000107    0.00000007   -0.00000103
     atom   44 type  3   force =     0.00000110    0.00000014    0.00000019
     atom   45 type  3   force =    -0.00000128    0.00000049   -0.00000187
     atom   46 type  3   force =    -0.00000128    0.00000044    0.00000110
     atom   47 type  3   force =     0.00000109    0.00000136   -0.00000103
     atom   48 type  3   force =     0.00000109    0.00000145    0.00000018

     Total force =     0.593648     Total SCF correction =     0.000135

     BFGS Geometry Optimization
     Energy error            =      0.0E+00 Ry
     Gradient error          =      2.0E-01 Ry/Bohr

     number of scf cycles    =   1
     number of bfgs steps    =   0

     energy             new  =   -3437.5573579495 Ry

     new trust radius        =       0.2207600488 bohr
     new conv_thr            =       0.0000000010 Ry


ATOMIC_POSITIONS (crystal)
O             0.0434537577        0.4626268033        0.2635148945
O             0.4664103488        0.4669281516        0.2720426731
O            -0.0034877762        0.0178456792        0.2996201989
O             0.4942984875       -0.0085293863        0.3025003429
Ru            0.2463522776       -0.0079839005        0.3588544836
Ru            0.7450131406       -0.0082006680        0.3580697701
O             0.2427774422        0.3008404887        0.3620405440
O             0.7510429211        0.3033923596        0.3579565764
Ru            0.0002963398        0.4904464050        0.3606794549
Ru            0.5003631132        0.4920575946        0.3516705466
O             0.2401265977        0.6834475165        0.3554639958
O             0.7526499029        0.6804946687        0.3530699530
O            -0.0071004530       -0.0109434201        0.4118772224
O             0.4975844310       -0.0095271253        0.4117022848
O            -0.0064380889        0.5013901406        0.4468100620
O             0.4919201014        0.5008779199        0.4413215553
Ru           -0.0070323013       -0.0012672847        0.5000010000
Ru            0.4953016852       -0.0012459576        0.5000010000
O             0.2446663681        0.1859259241        0.5000010000
O             0.7429973530        0.1880326020        0.5000010000
Ru            0.2496865296        0.4993009367        0.5000010000
Ru            0.7405011157        0.4991945872        0.5000010000
O             0.2454336065        0.8125020282        0.5000010000
O             0.7424613221        0.8103934488        0.5000010000
O            -0.0064380889        0.5013901406        0.5531909380
O             0.4919201014        0.5008779199        0.5586794447
O            -0.0071004530       -0.0109434201        0.5881237776
O             0.4975844310       -0.0095271253        0.5882987152
Ru            0.2463522776       -0.0079839005        0.6411465164
Ru            0.7450131406       -0.0082006680        0.6419312299
O             0.2427774422        0.3008404887        0.6379604560
O             0.7510429211        0.3033923596        0.6420444236
Ru            0.0002963398        0.4904464050        0.6393215451
Ru            0.5003631132        0.4920575946        0.6483304534
O             0.2401265977        0.6834475165        0.6445370042
O             0.7526499029        0.6804946687        0.6469310470
O            -0.0034877762        0.0178456792        0.7003818011
O             0.4942984875       -0.0085293863        0.6975016571
O             0.0434537577        0.4626268033        0.7364861055
O             0.4664103488        0.4669281516        0.7279583269
H             0.1899835984        0.4553435805        0.2582720755
H             0.1899835984        0.4553435805        0.7417279245
H             0.0043859543        0.2796277717        0.2597845561
H             0.0043859543        0.2796277717        0.7402154439
H             0.4930109286        0.1255922928        0.2712621953
H             0.4930109286        0.1255922928        0.7287378047
H            -0.0020158637        0.9020719850        0.2648949914
H            -0.0020158637        0.9020719850        0.7351050086



     Writing config-only to output data dir /storage/home/mgm6007/ixd4/Maria/StrainJin_Files/RuO2-110-0-0234/RuO2-110-0-0234.save/
     NEW-OLD atomic charge density approx. for the potential

     Check: negative core charge=   -0.000001

     negative rho (up, down):  1.211E-04 0.000E+00

     add environment contribution to local potential
     Polarization accuracy = 2.9E-12, # of iterations =  44

     total cpu time spent up to now is    33850.6 secs

     per-process dynamical memory:   216.0 Mb

     Self-consistent Calculation

     iteration #  1     ecut=    50.00 Ry     beta= 0.70
     Davidson diagonalization with overlap
     ethr =  1.00E-06,  avg # of iterations = 11.0

     negative rho (up, down):  3.000E-04 0.000E+00

     total cpu time spent up to now is    34010.5 secs

     total energy              =   -3437.58265802 Ry
     estimated scf accuracy    <       0.11607580 Ry
     electrostatic embedding   =      -0.03868819 Ry
     cavitation energy         =       0.02103216 Ry
     PV energy                 =      -0.08154450 Ry
     correction to one-el term =     186.91171821 Ry

     iteration #  2     ecut=    50.00 Ry     beta= 0.70
     Davidson diagonalization with overlap
     ethr =  3.15E-05,  avg # of iterations =  2.0

     negative rho (up, down):  2.069E-04 0.000E+00

     total cpu time spent up to now is    34160.8 secs

     total energy              =   -3437.58600774 Ry
     estimated scf accuracy    <       0.11153345 Ry
     electrostatic embedding   =      -0.03910051 Ry
     cavitation energy         =       0.02107060 Ry
     PV energy                 =      -0.08149376 Ry
     correction to one-el term =     186.91277498 Ry

     iteration #  3     ecut=    50.00 Ry     beta= 0.70
     Davidson diagonalization with overlap
     ethr =  3.03E-05,  avg # of iterations =  1.0

     negative rho (up, down):  1.712E-04 0.000E+00

     add environment contribution to local potential
     Polarization accuracy = 9.1E-12, # of iterations =  44

     total cpu time spent up to now is    34295.6 secs

     total energy              =   -3437.58738943 Ry
     estimated scf accuracy    <       0.02499437 Ry
     electrostatic embedding   =      -0.03927343 Ry
     cavitation energy         =       0.02106043 Ry
     PV energy                 =      -0.08152895 Ry
     correction to one-el term =     186.91311308 Ry

     iteration #  4     ecut=    50.00 Ry     beta= 0.70
     Davidson diagonalization with overlap
     ethr =  6.79E-06,  avg # of iterations =  2.0

     negative rho (up, down):  7.079E-05 0.000E+00

     add environment contribution to local potential
     Polarization accuracy = 7.6E-12, # of iterations =  44

     total cpu time spent up to now is    34437.6 secs

     total energy              =   -3437.59004399 Ry
     estimated scf accuracy    <       0.00986920 Ry
     electrostatic embedding   =      -0.04159850 Ry
     cavitation energy         =       0.02106311 Ry
     PV energy                 =      -0.08154085 Ry
     correction to one-el term =     186.59676102 Ry

     iteration #  5     ecut=    50.00 Ry     beta= 0.70
     Davidson diagonalization with overlap
     ethr =  2.68E-06,  avg # of iterations =  2.0

     negative rho (up, down):  2.444E-05 0.000E+00

     add environment contribution to local potential
     Polarization accuracy = 8.2E-12, # of iterations =  44

     total cpu time spent up to now is    34585.4 secs

     total energy              =   -3437.59069752 Ry
     estimated scf accuracy    <       0.00405237 Ry
     electrostatic embedding   =      -0.04259761 Ry
     cavitation energy         =       0.02105637 Ry
     PV energy                 =      -0.08155591 Ry
     correction to one-el term =     186.34804299 Ry

     iteration #  6     ecut=    50.00 Ry     beta= 0.70
     Davidson diagonalization with overlap
     ethr =  1.10E-06,  avg # of iterations =  1.5

     negative rho (up, down):  5.480E-06 0.000E+00

     add environment contribution to local potential
     Polarization accuracy = 6.2E-12, # of iterations =  44

     total cpu time spent up to now is    34729.1 secs

     total energy              =   -3437.59079570 Ry
     estimated scf accuracy    <       0.00078033 Ry
     electrostatic embedding   =      -0.04339529 Ry
     cavitation energy         =       0.02105244 Ry
     PV energy                 =      -0.08156216 Ry
     correction to one-el term =     186.13145128 Ry

     iteration #  7     ecut=    50.00 Ry     beta= 0.70
     Davidson diagonalization with overlap
     ethr =  2.12E-07,  avg # of iterations =  2.0

     negative rho (up, down):  9.876E-07 0.000E+00

     add environment contribution to local potential
     Polarization accuracy = 5.0E-12, # of iterations =  44

     total cpu time spent up to now is    34889.5 secs

     total energy              =   -3437.59081180 Ry
     estimated scf accuracy    <       0.00075775 Ry
     electrostatic embedding   =      -0.04428243 Ry
     cavitation energy         =       0.02105337 Ry
[...]
     atom   15 type  1   force =     0.34115470   -0.46566757   25.04502996
     atom   16 type  1   force =    -0.22347414   -0.32589667   27.14739709
     atom   17 type  2   force =    -0.01468081   -0.91715098   -0.00586134
     atom   18 type  2   force =    -0.41640604   -0.96512139   -0.00585830
     atom   19 type  1   force =    -0.10779724   -0.71502254   -0.00245759
     atom   20 type  1   force =     0.11325449   -0.81084023   -0.00246700
     atom   21 type  2   force =    -1.22820845    0.12012032   -0.00604193
     atom   22 type  2   force =     1.73009530    0.24665839   -0.00605922
     atom   23 type  1   force =    -0.09642606    0.77112716   -0.00246246
     atom   24 type  1   force =     0.11380543    0.83435849   -0.00246736
     atom   25 type  1   force =     0.34116972   -0.46568929  -25.04679911
     atom   26 type  1   force =    -0.22347324   -0.32590994  -27.14918380
     atom   27 type  1   force =     0.19729362    0.63999916  -38.92508729
     atom   28 type  1   force =    -0.28182038    0.60511690  -38.44080148
     atom   29 type  2   force =     0.62346396    1.94796505 -169.81992274
     atom   30 type  2   force =    -0.51546240    1.75349750 -171.09083216
     atom   31 type  1   force =    -0.54817416   -0.00129178  -58.58364826
     atom   32 type  1   force =     0.10611941   -0.15803601  -62.17511148
     atom   33 type  2   force =     2.33589301   -2.10785620 -170.01733228
     atom   34 type  2   force =    -2.14753836   -2.98782129 -174.64123027
     atom   35 type  1   force =    -0.22525709   -0.63907162  -67.12797393
     atom   36 type  1   force =    -0.17257537   -0.34119697  -69.49637080
     atom   37 type  1   force =     0.43597888    0.70368929  -91.63092992
     atom   38 type  1   force =    -0.44466626    2.17709150  -92.49953231
     atom   39 type  1   force =     2.07334267   -1.74114010  -93.29370534
     atom   40 type  1   force =    -0.80905585    0.06005847  -98.63835805
     atom   41 type  3   force =    -2.51119060   -0.45762179   15.82335721
     atom   42 type  3   force =    -2.51119060   -0.45762179  -15.82335721
     atom   43 type  3   force =     0.69244745    2.61154830   15.56207392
     atom   44 type  3   force =     0.69244745    2.61154830  -15.56207392
     atom   45 type  3   force =    -0.12691963   -1.67054316   17.10756499
     atom   46 type  3   force =    -0.12691963   -1.67054316  -17.10756499
     atom   47 type  3   force =     0.08566826    2.21411667   17.60723047
     atom   48 type  3   force =     0.08566826    2.21411667  -17.60723047
     The core correction contribution to forces
     atom    1 type  1   force =    -0.01278756    0.01250262   -0.00423202
     atom    2 type  1   force =     0.00019287   -0.00010481   -0.00952962
     atom    3 type  1   force =    -0.00003702    0.01254180    0.00494633
     atom    4 type  1   force =     0.00016259   -0.01412233   -0.00077078
     atom    5 type  2   force =     0.00000000    0.00000000    0.00000000
     atom    6 type  2   force =     0.00000000    0.00000000    0.00000000
     atom    7 type  1   force =    -0.00013665    0.00001658    0.00232112
     atom    8 type  1   force =     0.00069187    0.00015866    0.00139288
     atom    9 type  2   force =     0.00000000    0.00000000    0.00000000
     atom   10 type  2   force =     0.00000000    0.00000000    0.00000000
     atom   11 type  1   force =    -0.00033196    0.00000691   -0.00061691
     atom   12 type  1   force =     0.00094332   -0.00014804   -0.00119883
     atom   13 type  1   force =    -0.00004881   -0.00065535   -0.00021261
     atom   14 type  1   force =     0.00007493   -0.00029066    0.00039281
     atom   15 type  1   force =    -0.00017013    0.00058141    0.00227827
     atom   16 type  1   force =    -0.00033568    0.00073076   -0.00217865
     atom   17 type  2   force =     0.00000000    0.00000000    0.00000000
     atom   18 type  2   force =     0.00000000    0.00000000    0.00000000
     atom   19 type  1   force =     0.00013550   -0.00048171   -0.00000207
     atom   20 type  1   force =     0.00031793   -0.00047178   -0.00000208
     atom   21 type  2   force =     0.00000000    0.00000000    0.00000000
     atom   22 type  2   force =     0.00000000    0.00000000    0.00000000
     atom   23 type  1   force =     0.00006153    0.00052220   -0.00000197
     atom   24 type  1   force =     0.00042305    0.00047462   -0.00000195
     atom   25 type  1   force =    -0.00017013    0.00058151   -0.00228086
     atom   26 type  1   force =    -0.00033562    0.00073098    0.00217646
     atom   27 type  1   force =    -0.00004881   -0.00065552    0.00021038
     atom   28 type  1   force =     0.00007493   -0.00029083   -0.00039504
     atom   29 type  2   force =     0.00000000    0.00000000    0.00000000
     atom   30 type  2   force =     0.00000000    0.00000000    0.00000000
     atom   31 type  1   force =    -0.00013664    0.00001659   -0.00232305
     atom   32 type  1   force =     0.00069178    0.00015881   -0.00139487
     atom   33 type  2   force =     0.00000000    0.00000000    0.00000000
     atom   34 type  2   force =     0.00000000    0.00000000    0.00000000
     atom   35 type  1   force =    -0.00033182    0.00000680    0.00061490
     atom   36 type  1   force =     0.00094316   -0.00014821    0.00119680
     atom   37 type  1   force =    -0.00003701    0.01254388   -0.00495098
     atom   38 type  1   force =     0.00016255   -0.01412449    0.00076690
     atom   39 type  1   force =    -0.01278824    0.01250297    0.00423101
     atom   40 type  1   force =     0.00019275   -0.00010509    0.00952721
     atom   41 type  3   force =     0.00000000    0.00000000    0.00000000
     atom   42 type  3   force =     0.00000000    0.00000000    0.00000000
     atom   43 type  3   force =     0.00000000    0.00000000    0.00000000
     atom   44 type  3   force =     0.00000000    0.00000000    0.00000000
     atom   45 type  3   force =     0.00000000    0.00000000    0.00000000
     atom   46 type  3   force =     0.00000000    0.00000000    0.00000000
     atom   47 type  3   force =     0.00000000    0.00000000    0.00000000
     atom   48 type  3   force =     0.00000000    0.00000000    0.00000000
     The Hubbard contrib.    to forces
     atom    1 type  1   force =     0.00000000    0.00000000    0.00000000
     atom    2 type  1   force =     0.00000000    0.00000000    0.00000000
     atom    3 type  1   force =     0.00000000    0.00000000    0.00000000
     atom    4 type  1   force =     0.00000000    0.00000000    0.00000000
     atom    5 type  2   force =     0.00000000    0.00000000    0.00000000
     atom    6 type  2   force =     0.00000000    0.00000000    0.00000000
     atom    7 type  1   force =     0.00000000    0.00000000    0.00000000
     atom    8 type  1   force =     0.00000000    0.00000000    0.00000000
     atom    9 type  2   force =     0.00000000    0.00000000    0.00000000
     atom   10 type  2   force =     0.00000000    0.00000000    0.00000000
     atom   11 type  1   force =     0.00000000    0.00000000    0.00000000
     atom   12 type  1   force =     0.00000000    0.00000000    0.00000000
     atom   13 type  1   force =     0.00000000    0.00000000    0.00000000
     atom   14 type  1   force =     0.00000000    0.00000000    0.00000000
     atom   15 type  1   force =     0.00000000    0.00000000    0.00000000
     atom   16 type  1   force =     0.00000000    0.00000000    0.00000000
     atom   17 type  2   force =     0.00000000    0.00000000    0.00000000
     atom   18 type  2   force =     0.00000000    0.00000000    0.00000000
     atom   19 type  1   force =     0.00000000    0.00000000    0.00000000
     atom   20 type  1   force =     0.00000000    0.00000000    0.00000000
     atom   21 type  2   force =     0.00000000    0.00000000    0.00000000
     atom   22 type  2   force =     0.00000000    0.00000000    0.00000000
     atom   23 type  1   force =     0.00000000    0.00000000    0.00000000
     atom   24 type  1   force =     0.00000000    0.00000000    0.00000000
     atom   25 type  1   force =     0.00000000    0.00000000    0.00000000
     atom   26 type  1   force =     0.00000000    0.00000000    0.00000000
     atom   27 type  1   force =     0.00000000    0.00000000    0.00000000
     atom   28 type  1   force =     0.00000000    0.00000000    0.00000000
     atom   29 type  2   force =     0.00000000    0.00000000    0.00000000
     atom   30 type  2   force =     0.00000000    0.00000000    0.00000000
     atom   31 type  1   force =     0.00000000    0.00000000    0.00000000
     atom   32 type  1   force =     0.00000000    0.00000000    0.00000000
     atom   33 type  2   force =     0.00000000    0.00000000    0.00000000
     atom   34 type  2   force =     0.00000000    0.00000000    0.00000000
     atom   35 type  1   force =     0.00000000    0.00000000    0.00000000
     atom   36 type  1   force =     0.00000000    0.00000000    0.00000000
     atom   37 type  1   force =     0.00000000    0.00000000    0.00000000
     atom   38 type  1   force =     0.00000000    0.00000000    0.00000000
     atom   39 type  1   force =     0.00000000    0.00000000    0.00000000
     atom   40 type  1   force =     0.00000000    0.00000000    0.00000000
     atom   41 type  3   force =     0.00000000    0.00000000    0.00000000
     atom   42 type  3   force =     0.00000000    0.00000000    0.00000000
     atom   43 type  3   force =     0.00000000    0.00000000    0.00000000
     atom   44 type  3   force =     0.00000000    0.00000000    0.00000000
     atom   45 type  3   force =     0.00000000    0.00000000    0.00000000
     atom   46 type  3   force =     0.00000000    0.00000000    0.00000000
     atom   47 type  3   force =     0.00000000    0.00000000    0.00000000
     atom   48 type  3   force =     0.00000000    0.00000000    0.00000000
     The SCF correction term to forces
     atom    1 type  1   force =     0.00000025    0.00000049    0.00000114
     atom    2 type  1   force =    -0.00000012    0.00000029    0.00000147
     atom    3 type  1   force =    -0.00000007   -0.00000059    0.00000219
     atom    4 type  1   force =     0.00000014   -0.00000035    0.00000199
     atom    5 type  2   force =     0.00000137   -0.00000090    0.00000551
     atom    6 type  2   force =    -0.00000146   -0.00000067    0.00000595
     atom    7 type  1   force =     0.00000067   -0.00000033    0.00000231
     atom    8 type  1   force =    -0.00000074   -0.00000083    0.00000231
     atom    9 type  2   force =     0.00000034    0.00000101    0.00000612
     atom   10 type  2   force =    -0.00000006    0.00000086    0.00000553
     atom   11 type  1   force =     0.00000066    0.00000055    0.00000198
     atom   12 type  1   force =    -0.00000073    0.00000099    0.00000216
     atom   13 type  1   force =    -0.00000028   -0.00000021    0.00000148
     atom   14 type  1   force =     0.00000030   -0.00000013    0.00000222
     atom   15 type  1   force =     0.00000032    0.00000016    0.00000229
     atom   16 type  1   force =    -0.00000022    0.00000015    0.00000210
     atom   17 type  2   force =     0.00000022   -0.00000034    0.00000000
     atom   18 type  2   force =    -0.00000018   -0.00000015    0.00000001
     atom   19 type  1   force =     0.00000106    0.00000047    0.00000000
     atom   20 type  1   force =    -0.00000113    0.00000009    0.00000000
     atom   21 type  2   force =     0.00000111    0.00000025    0.00000000
     atom   22 type  2   force =    -0.00000111    0.00000019    0.00000000
     atom   23 type  1   force =     0.00000101   -0.00000050    0.00000000
     atom   24 type  1   force =    -0.00000108   -0.00000011    0.00000000
     atom   25 type  1   force =     0.00000032    0.00000016   -0.00000229
     atom   26 type  1   force =    -0.00000022    0.00000015   -0.00000209
     atom   27 type  1   force =    -0.00000028   -0.00000021   -0.00000147
     atom   28 type  1   force =     0.00000030   -0.00000013   -0.00000222
     atom   29 type  2   force =     0.00000137   -0.00000090   -0.00000552
     atom   30 type  2   force =    -0.00000146   -0.00000067   -0.00000596
     atom   31 type  1   force =     0.00000067   -0.00000033   -0.00000231
     atom   32 type  1   force =    -0.00000073   -0.00000083   -0.00000232
     atom   33 type  2   force =     0.00000033    0.00000101   -0.00000613
     atom   34 type  2   force =    -0.00000005    0.00000085   -0.00000554
     atom   35 type  1   force =     0.00000065    0.00000055   -0.00000199
     atom   36 type  1   force =    -0.00000072    0.00000099   -0.00000216
     atom   37 type  1   force =    -0.00000007   -0.00000059   -0.00000220
     atom   38 type  1   force =     0.00000014   -0.00000035   -0.00000200
     atom   39 type  1   force =     0.00000025    0.00000049   -0.00000115
     atom   40 type  1   force =    -0.00000012    0.00000029   -0.00000148
     atom   41 type  3   force =     0.00000011    0.00000006    0.00000020
     atom   42 type  3   force =     0.00000011    0.00000006   -0.00000020
     atom   43 type  3   force =     0.00000000   -0.00000006    0.00000019
     atom   44 type  3   force =     0.00000000   -0.00000006   -0.00000019
     atom   45 type  3   force =     0.00000001   -0.00000010    0.00000029
     atom   46 type  3   force =     0.00000001   -0.00000010   -0.00000029
     atom   47 type  3   force =     0.00000000   -0.00000004    0.00000025
     atom   48 type  3   force =     0.00000000   -0.00000004   -0.00000025

     Total force =     0.000273     Total SCF correction =     0.000020
     Energy error            =      1.2E-07 Ry
     Gradient error          =      7.6E-05 Ry/Bohr

     bfgs converged in  54 scf cycles and  53 bfgs steps
     (criteria: energy <  1.0E-04 Ry, force <  1.0E-04 Ry/Bohr)

     End of BFGS Geometry Optimization

     Final energy             =   -3437.6642548356 Ry

     File /storage/home/mgm6007/ixd4/Maria/StrainJin_Files/RuO2-110-0-0234/RuO2-110-0-0234.bfgs deleted, as requested
Begin final coordinates

ATOMIC_POSITIONS (crystal)
O             0.0355903527        0.4373485991        0.2624540854
O             0.4697648866        0.4434805087        0.2720642583
O            -0.0032383178        0.0109585813        0.2992227993
O             0.4948907317       -0.0001424142        0.3011515783
Ru            0.2483934623       -0.0069975380        0.3594625182
Ru            0.7443571298       -0.0076479487        0.3586991512
O             0.2437108722        0.3041065384        0.3645310840
O             0.7495345154        0.3054463165        0.3602414427
Ru           -0.0011349622        0.4917317674        0.3597147978
Ru            0.4982412911        0.4926488611        0.3516041054
O             0.2429609513        0.6825344735        0.3533444895
O             0.7501932324        0.6800440955        0.3506287765
O            -0.0055400757       -0.0109708196        0.4113588847
O             0.4974021965       -0.0088353602        0.4115346580
O            -0.0089823575        0.5093628022        0.4465641145
O             0.4918864820        0.5076487279        0.4431632610
Ru           -0.0037527728        0.0051002656        0.5000010000
Ru            0.4966571017        0.0054938898        0.5000010000
O             0.2472386634        0.1923727629        0.5000010000
O             0.7476285586        0.1924834733        0.5000010000
Ru            0.2438659339        0.5062776399        0.5000010000
Ru            0.7389553777        0.5062446798        0.5000010000
O             0.2481421911        0.8197519471        0.5000010000
O             0.7466896879        0.8197347692        0.5000010000
O            -0.0089823575        0.5093628022        0.5534368855
O             0.4918864820        0.5076487279        0.5568377390
O            -0.0055400757       -0.0109708196        0.5886421153
O             0.4974021965       -0.0088353602        0.5884663420
Ru            0.2483934623       -0.0069975380        0.6405384818
Ru            0.7443571298       -0.0076479487        0.6413018488
O             0.2437108722        0.3041065384        0.6354699160
O             0.7495345154        0.3054463165        0.6397595573
Ru           -0.0011349622        0.4917317674        0.6402862022
Ru            0.4982412911        0.4926488611        0.6483968946
O             0.2429609513        0.6825344735        0.6466565105
O             0.7501932324        0.6800440955        0.6493722235
O            -0.0032383178        0.0109585813        0.7007792007
O             0.4948907317       -0.0001424142        0.6988504217
O             0.0355903527        0.4373485991        0.7375469146
O             0.4697648866        0.4434805087        0.7279367417
H             0.1860086539        0.4510107070        0.2561615452
H             0.1860086539        0.4510107070        0.7438384548
H             0.0112956592        0.2708897241        0.2630922713
H             0.0112956592        0.2708897241        0.7369077287
H             0.4929675279        0.1399268940        0.2767128737
H             0.4929675279        0.1399268940        0.7232871263
H            -0.0033796025        0.8979427700        0.2672614250
H            -0.0033796025        0.8979427700        0.7327385750
End final coordinates



     Writing all to output data dir /storage/home/mgm6007/ixd4/Maria/StrainJin_Files/RuO2-110-0-0234/RuO2-110-0-0234.save/
 
     init_run     :    194.41s CPU    975.94s WALL (       1 calls)
     electrons    :  60955.34s CPU 178279.84s WALL (      54 calls)
     update_pot   :     90.26s CPU     91.97s WALL (      53 calls)
     forces       :     98.25s CPU    101.61s WALL (      54 calls)

     Called by init_run:
     wfcinit      :      1.02s CPU      1.02s WALL (       1 calls)
     potinit      :    153.57s CPU    704.16s WALL (       1 calls)
     hinit0       :     39.34s CPU    270.23s WALL (       1 calls)

     Called by electrons:
     c_bands      :   2633.95s CPU   2681.30s WALL (    1044 calls)
     sum_band     :    501.18s CPU    509.94s WALL (    1044 calls)
     v_of_rho     :    117.64s CPU    119.14s WALL (    1052 calls)
     newd         :    100.98s CPU    103.08s WALL (    1052 calls)
     PAW_pot      :    128.02s CPU    129.86s WALL (    1105 calls)
     mix_rho      :    798.29s CPU    815.11s WALL (    1044 calls)

     Called by c_bands:
     init_us_2    :     32.86s CPU     33.58s WALL (    4392 calls)
     init_us_2:cp :     32.82s CPU     33.56s WALL (    4392 calls)
     cegterg      :   2519.28s CPU   2564.71s WALL (    2088 calls)

     Called by *egterg:
     cdiaghg      :    304.10s CPU    309.00s WALL (    5747 calls)
     h_psi        :   1317.52s CPU   1345.90s WALL (    5947 calls)
     s_psi        :    194.91s CPU    197.54s WALL (    5947 calls)
     g_psi        :      6.08s CPU      6.15s WALL (    3857 calls)

     Called by h_psi:
     h_psi:calbec :    199.52s CPU    202.62s WALL (    5947 calls)
     vloc_psi     :    906.27s CPU    928.82s WALL (    5947 calls)
     add_vuspsi   :    196.63s CPU    199.33s WALL (    5947 calls)

     General routines
     calbec       :    314.39s CPU    319.03s WALL (    8573 calls)
     fft          :  12969.50s CPU  17384.74s WALL (   14261 calls)
     ffts         :    290.35s CPU    294.38s WALL (  446568 calls)
     fftw         :    811.85s CPU    833.48s WALL ( 2410824 calls)
     interpolate  :  12883.11s CPU  17297.63s WALL (    1052 calls)
 
     Parallel routines
 
     Environ routines
 
     PWSCF        :     17h52m CPU   2d 4h 3m WALL

 
   This run was terminated on:  15:27: 2  28Jul2023            

=------------------------------------------------------------------------------=
   JOB DONE.
=------------------------------------------------------------------------------=
