
     Program PWSCF v.7.2 starts on 26Jul2023 at 11:17:38 
        Git branch: heads/qe-7.2
        Last git commit: b4c5e8deeb7d1863e7553a87b45f8d22c21926a5
        Last git commit date: Mon Mar 27 16:12:09 2023 +0000
        Last git commit subject: Merge branch 'merge_fix_hubbard' into 'develop'

     This program is part of the open-source Quantum ESPRESSO suite
     for quantum simulation of materials; please cite
         "P. Giannozzi et al., J. Phys.:Condens. Matter 21 395502 (2009);
         "P. Giannozzi et al., J. Phys.:Condens. Matter 29 465901 (2017);
         "P. Giannozzi et al., J. Chem. Phys. 152 154105 (2020);
          URL http://www.quantum-espresso.org", 
     in publications or presentations arising from this work. More details at
     http://www.quantum-espresso.org/quote

     Parallel version (MPI), running on    20 processors

     MPI processes distributed on     1 nodes
     100401 MiB available memory on the printing compute node when the environment starts
 
     Reading input from RuO2-110-0-023.in

     Current dimensions of program PWSCF are:
     Max number of different atomic species (ntypx) = 10
     Max number of k-points (npk) =  40000
     Max angular momentum in pseudopotentials (lmaxx) =  4
 
     Reading input from environ.in:
     * Environ restarting
     * setting up water environment
     * using electronic solvent mode
     * setting boundary derivatives method to SCCS default
     
     file O.pbe-n-kjpaw_psl.0.1.UPF: wavefunction(s)  2P renormalized
     Message from routine setup:
     using ibrav=0 with symmetry is DISCOURAGED, use correct ibrav instead
 
     R & G space division:  proc/nbgrp/npool/nimage =      20
     Subspace diagonalization in iterative solution of the eigenvalue problem:
     one sub-group per band group will be used
     scalapack distributed-memory algorithm (size of sub-group:  2*  2 procs)

 
     Parallelization info
     --------------------
     sticks:   dense  smooth     PW     G-vecs:    dense   smooth      PW
     Min         276     110     29                54982    13912    1877
     Max         277     111     30                54993    13923    1888
     Sum        5537    2217    585              1099789   278381   37601
 
     Using Slab Decomposition
 


     bravais-lattice index     =            0
     lattice parameter (alat)  =      12.3824  a.u.
     unit-cell volume          =    5825.9133 (a.u.)^3
     number of atoms/cell      =           46
     number of atomic types    =            3
     number of electrons       =       366.00
     number of Kohn-Sham states=          220
     kinetic-energy cutoff     =      50.0000  Ry
     charge density cutoff     =     500.0000  Ry
     scf convergence threshold =      1.0E-09
     mixing beta               =       0.7000
     number of iterations used =            8  local-TF  mixing
     energy convergence thresh.=      1.0E-04
     force convergence thresh. =      1.0E-04
     Exchange-correlation= PBE
                           (   1   4   3   4   0   0   0)
     nstep                     =          200


     ================================================================================
 
                                  Environ Setup Summary

     ================================================================================
 
     Please cite

          O. Andreussi, I. Dabo and N. Marzari, J. Chem. Phys. 136, 064102 (2012)

     in publications or presentations arising from this work.

     ================================================================================
 
     Parameters
     ==========

     compensation onset threshold      =               0.1000E+00
     static permittivity               =                    78.30
     surface tension in input (dyn/cm) =                    47.90
     surface tension in internal units =               0.6153E-04
     external pressure in input (GPa)  =                    -0.36
     external pressure in inter. units =              -0.2447E-04

     Solvent Boundary
     ================

     solvent mode                      =               electronic
     derivatives method                =                    chain
     numerical core for derivatives    =                      fft
     switching function adopted        =                     SCCS
     density limit for vacuum region   =               0.5000E-02
     density limit for bulk solvent    =               0.1000E-03

     Electrostatic Setup
     ===================

     electrostatic problem to solve    =              generalized
     numerical solver adopted          =                       cg
     type of auxiliary density adopted =                     none
     numerical core for poisson        =                      fft
     type of pbc corrections           =                parabolic
     numerical core for corrections    =                      1da

     ================================================================================
 

     celldm(1)=  12.382447  celldm(2)=   0.000000  celldm(3)=   0.000000
     celldm(4)=   0.000000  celldm(5)=   0.000000  celldm(6)=   0.000000

     crystal axes: (cart. coord. in units of alat)
               a(1) = (   1.000000   0.000000   0.000000 )  
               a(2) = (   0.000000   0.908473   0.000000 )  
               a(3) = (   0.000000   0.000000   3.377790 )  

     reciprocal axes: (cart. coord. in units 2 pi/alat)
               b(1) = (  1.000000  0.000000  0.000000 )  
               b(2) = (  0.000000  1.100748  0.000000 )  
               b(3) = (  0.000000  0.000000  0.296052 )  


     PseudoPot. # 1 for O  read from file:
     /gpfs/group/ixd4/default/Simon/pseudopotentials/materialscloud/SSSP_1.3.0_PBE_efficiency/O.pbe-n-kjpaw_psl.0.1.UPF
     MD5 check sum: 0234752ac141de4415c5fc33072bef88
     Pseudo is Projector augmented-wave + core cor, Zval =  6.0
     Generated using "atomic" code by A. Dal Corso  v.5.0.99 svn rev. 10869
     Shape of augmentation charge: BESSEL
     Using radial grid of 1095 points,  4 beta functions with: 
                l(1) =   0
                l(2) =   0
                l(3) =   1
                l(4) =   1
     Q(r) pseudized with 0 coefficients 


     PseudoPot. # 2 for Ru read from file:
     /gpfs/group/ixd4/default/Simon/pseudopotentials/materialscloud/SSSP_1.3.0_PBE_efficiency/Ru_ONCV_PBE-1.0.oncvpsp.upf
     MD5 check sum: be037bb81c227cfb9b1461a9f099f4bd
     Pseudo is Norm-conserving, Zval = 16.0
     Generated using ONCVPSP code by D. R. Hamann
     Using radial grid of 1458 points,  6 beta functions with: 
                l(1) =   0
                l(2) =   0
                l(3) =   1
                l(4) =   1
                l(5) =   2
                l(6) =   2

     PseudoPot. # 3 for H  read from file:
     /gpfs/group/ixd4/default/Simon/pseudopotentials/materialscloud/SSSP_1.3.0_PBE_efficiency/H.pbe-rrkjus_psl.1.0.0.UPF
     MD5 check sum: f52b6d4d1c606e5624b1dc7b2218f220
     Pseudo is Ultrasoft, Zval =  1.0
     Generated using "atomic" code by A. Dal Corso  v.5.1
     Using radial grid of  929 points,  2 beta functions with: 
                l(1) =   0
                l(2) =   0
     Q(r) pseudized with 0 coefficients 


     atomic species   valence    mass     pseudopotential
        O              6.00    15.99940     O ( 1.00)
        Ru            16.00   101.07000     Ru( 1.00)
        H              1.00     1.00794     H ( 1.00)

      2 Sym. Ops. (no inversion) found



   Cartesian axes

     site n.     atom                  positions (alat units)
         1           O   tau(   1) = (   0.0095961   0.4241338   0.9150348  )
         2           O   tau(   2) = (   0.4787982   0.4604086   0.9227313  )
         3           O   tau(   3) = (  -0.0005788   0.0213736   1.0147249  )
         4           O   tau(   4) = (   0.4974791   0.0061175   1.0247198  )
         5           Ru  tau(   5) = (   0.2484288   0.0055839   1.2124040  )
         6           Ru  tau(   6) = (   0.7485200   0.0056010   1.2104284  )
         7           O   tau(   7) = (   0.2494297   0.2803087   1.2189586  )
         8           O   tau(   8) = (   0.7495331   0.2832093   1.2094248  )
         9           Ru  tau(   9) = (   0.0006175   0.4602364   1.2105157  )
        10           Ru  tau(  10) = (   0.5019678   0.4572432   1.1851306  )
        11           O   tau(  11) = (   0.2403398   0.6406892   1.2040610  )
        12           O   tau(  12) = (   0.7568469   0.6363479   1.1991483  )
        13           O   tau(  13) = (  -0.0035407   0.0070133   1.3887477  )
        14           O   tau(  14) = (   0.5004330   0.0011447   1.3920048  )
        15           O   tau(  15) = (   0.0000340   0.4635737   1.5075031  )
        16           O   tau(  16) = (   0.4968156   0.4648748   1.4880558  )
        17           Ru  tau(  17) = (  -0.0054690   0.0080360   1.6888985  )
        18           Ru  tau(  18) = (   0.5014647   0.0092139   1.6888985  )
        19           O   tau(  19) = (   0.2500734   0.1816875   1.6888985  )
        20           O   tau(  20) = (   0.7459068   0.1887616   1.6888985  )
        21           Ru  tau(  21) = (   0.2556967   0.4640083   1.6888985  )
        22           Ru  tau(  22) = (   0.7435491   0.4635040   1.6888985  )
        23           O   tau(  23) = (   0.2482611   0.7448666   1.6888985  )
        24           O   tau(  24) = (   0.7479799   0.7373529   1.6888985  )
        25           O   tau(  25) = (   0.0000340   0.4635737   1.8702906  )
        26           O   tau(  26) = (   0.4968156   0.4648748   1.8897379  )
        27           O   tau(  27) = (  -0.0035407   0.0070133   1.9890460  )
        28           O   tau(  28) = (   0.5004330   0.0011447   1.9857889  )
        29           Ru  tau(  29) = (   0.2484288   0.0055839   2.1653897  )
        30           Ru  tau(  30) = (   0.7485200   0.0056010   2.1673653  )
        31           O   tau(  31) = (   0.2494297   0.2803087   2.1588351  )
        32           O   tau(  32) = (   0.7495331   0.2832093   2.1683689  )
        33           Ru  tau(  33) = (   0.0006175   0.4602364   2.1672780  )
        34           Ru  tau(  34) = (   0.5019678   0.4572432   2.1926631  )
        35           O   tau(  35) = (   0.2403398   0.6406892   2.1737327  )
        36           O   tau(  36) = (   0.7568469   0.6363479   2.1786454  )
        37           O   tau(  37) = (  -0.0005788   0.0213736   2.3630722  )
        38           O   tau(  38) = (   0.4974791   0.0061175   2.3530773  )
        39           O   tau(  39) = (   0.0095961   0.4241338   2.4627589  )
        40           O   tau(  40) = (   0.4787982   0.4604086   2.4550624  )
        41           H   tau(  41) = (   0.1534402   0.4454762   0.8663205  )
        42           H   tau(  42) = (   0.1534402   0.4454762   2.5114698  )
        43           H   tau(  43) = (  -0.0002061   0.1390972   0.9378526  )
        44           H   tau(  44) = (  -0.0002061   0.1390972   2.4399377  )
        45           H   tau(  45) = (   0.4959492  -0.0343132   0.8824823  )
        46           H   tau(  46) = (   0.4959492  -0.0343132   2.4953080  )

     number of k points=     2  Marzari-Vanderbilt smearing, width (Ry)=  0.0300
                       cart. coord. in units 2pi/alat
        k(    1) = (   0.2500000   0.2751871   0.0000000), wk =   1.0000000
        k(    2) = (  -0.2500000   0.2751871   0.0000000), wk =   1.0000000

     Dense  grid:  1099789 G-vectors     FFT dimensions: (  90,  81, 300)

     Smooth grid:   278381 G-vectors     FFT dimensions: (  60,  54, 192)

     Estimated max dynamical RAM per process >     180.34 MB

     Estimated total dynamical RAM >       3.52 GB

     Check: negative core charge=   -0.000001

     Initial potential from superposition of free atoms

     starting charge     365.9933, renormalised to     366.0000

     add environment contribution to local potential
     Polarization accuracy = 2.3E-12, # of iterations =  26

     negative rho (up, down):  3.229E-05 0.000E+00
     Starting wfcs are  238 randomized atomic wfcs
     Checking if some PAW data can be deallocated... 

     total cpu time spent up to now is      974.7 secs

     per-process dynamical memory:   150.3 Mb

     Self-consistent Calculation

     iteration #  1     ecut=    50.00 Ry     beta= 0.70
     Davidson diagonalization with overlap
     ethr =  1.00E-02,  avg # of iterations =  2.0

     total cpu time spent up to now is     1215.7 secs

     total energy              =   -3432.73091592 Ry
     estimated scf accuracy    <       9.65095447 Ry
     electrostatic embedding   =      -0.00177073 Ry
     cavitation energy         =       0.01951105 Ry
     PV energy                 =      -0.08405854 Ry
     correction to one-el term =     220.81430365 Ry

     iteration #  2     ecut=    50.00 Ry     beta= 0.70
     Davidson diagonalization with overlap
     ethr =  2.64E-03,  avg # of iterations =  2.0

     total cpu time spent up to now is     1417.3 secs

     total energy              =   -3434.83034395 Ry
     estimated scf accuracy    <       2.11907284 Ry
     electrostatic embedding   =      -0.00270967 Ry
     cavitation energy         =       0.01943409 Ry
     PV energy                 =      -0.08463426 Ry
     correction to one-el term =     220.81713640 Ry

     iteration #  3     ecut=    50.00 Ry     beta= 0.70
     Davidson diagonalization with overlap
     ethr =  5.79E-04,  avg # of iterations =  1.0

     total cpu time spent up to now is     1670.4 secs

     total energy              =   -3435.01927676 Ry
     estimated scf accuracy    <       0.41611249 Ry
     electrostatic embedding   =      -0.00308395 Ry
     cavitation energy         =       0.01951898 Ry
     PV energy                 =      -0.08470367 Ry
     correction to one-el term =     220.81809272 Ry

     iteration #  4     ecut=    50.00 Ry     beta= 0.70
     Davidson diagonalization with overlap
     ethr =  1.14E-04,  avg # of iterations =  2.0

     total cpu time spent up to now is     1868.9 secs

     total energy              =   -3435.05734854 Ry
     estimated scf accuracy    <       0.50584507 Ry
     electrostatic embedding   =      -0.00318807 Ry
     cavitation energy         =       0.01971815 Ry
     PV energy                 =      -0.08418536 Ry
     correction to one-el term =     220.81803005 Ry

     iteration #  5     ecut=    50.00 Ry     beta= 0.70
     Davidson diagonalization with overlap
     ethr =  1.14E-04,  avg # of iterations =  1.0

     total cpu time spent up to now is     2122.8 secs

     total energy              =   -3435.05024021 Ry
     estimated scf accuracy    <       0.16763323 Ry
     electrostatic embedding   =      -0.00331418 Ry
     cavitation energy         =       0.01999605 Ry
     PV energy                 =      -0.08358876 Ry
     correction to one-el term =     220.81803194 Ry

     iteration #  6     ecut=    50.00 Ry     beta= 0.70
     Davidson diagonalization with overlap
     ethr =  4.58E-05,  avg # of iterations =  6.0

     add environment contribution to local potential
     Polarization accuracy = 9.2E-12, # of iterations =  36

     total cpu time spent up to now is     2301.2 secs

     total energy              =   -3435.04812800 Ry
     estimated scf accuracy    <       0.09923374 Ry
     electrostatic embedding   =      -0.00334829 Ry
     cavitation energy         =       0.02061395 Ry
     PV energy                 =      -0.08221977 Ry
     correction to one-el term =     220.81749038 Ry

     iteration #  7     ecut=    50.00 Ry     beta= 0.70
     Davidson diagonalization with overlap
     ethr =  2.71E-05,  avg # of iterations = 11.5

     add environment contribution to local potential
     Polarization accuracy = 6.1E-12, # of iterations =  37

     total cpu time spent up to now is     2479.2 secs

     total energy              =   -3435.07706066 Ry
     estimated scf accuracy    <       0.04692142 Ry
     electrostatic embedding   =      -0.03829893 Ry
     cavitation energy         =       0.02081474 Ry
     PV energy                 =      -0.08169280 Ry
     correction to one-el term =     189.19541619 Ry

     iteration #  8     ecut=    50.00 Ry     beta= 0.70
     Davidson diagonalization with overlap
     ethr =  1.28E-05,  avg # of iterations =  1.5

     add environment contribution to local potential
     Polarization accuracy = 4.8E-12, # of iterations =  42

     total cpu time spent up to now is     2785.5 secs

     total energy              =   -3435.07478926 Ry
     estimated scf accuracy    <       0.03526376 Ry
     electrostatic embedding   =      -0.04076504 Ry
     cavitation energy         =       0.02090602 Ry
     PV energy                 =      -0.08140341 Ry
     correction to one-el term =     188.42404510 Ry

     iteration #  9     ecut=    50.00 Ry     beta= 0.70
     Davidson diagonalization with overlap
     ethr =  9.63E-06,  avg # of iterations =  6.0

     add environment contribution to local potential
     Polarization accuracy = 3.9E-12, # of iterations =  50

     total cpu time spent up to now is     3022.5 secs

     total energy              =   -3435.07463459 Ry
     estimated scf accuracy    <       0.04230941 Ry
     electrostatic embedding   =      -0.04851450 Ry
     cavitation energy         =       0.02117091 Ry
     PV energy                 =      -0.08064737 Ry
     correction to one-el term =     186.28433412 Ry

     iteration # 10     ecut=    50.00 Ry     beta= 0.70
     Davidson diagonalization with overlap
     ethr =  9.63E-06,  avg # of iterations =  6.0

     add environment contribution to local potential
     Polarization accuracy = 3.5E-12, # of iterations =  49

     total cpu time spent up to now is     3238.2 secs

     total energy              =   -3435.07533612 Ry
     estimated scf accuracy    <       0.06158446 Ry
     electrostatic embedding   =      -0.06138533 Ry
     cavitation energy         =       0.02148212 Ry
     PV energy                 =      -0.07982571 Ry
     correction to one-el term =     183.91864394 Ry

     iteration # 11     ecut=    50.00 Ry     beta= 0.70
     Davidson diagonalization with overlap
     ethr =  9.63E-06,  avg # of iterations =  1.0

     negative rho (up, down):  1.475E-03 0.000E+00

     add environment contribution to local potential
     Polarization accuracy = 7.2E-12, # of iterations =  50

     total cpu time spent up to now is     3454.9 secs

     total energy              =   -3435.07568746 Ry
     estimated scf accuracy    <       0.03011863 Ry
     electrostatic embedding   =      -0.06358083 Ry
     cavitation energy         =       0.02139724 Ry
     PV energy                 =      -0.07981964 Ry
     correction to one-el term =     184.18603010 Ry

     iteration # 12     ecut=    50.00 Ry     beta= 0.70
     Davidson diagonalization with overlap
     ethr =  8.23E-06,  avg # of iterations =  2.0

     negative rho (up, down):  5.823E-04 0.000E+00

     add environment contribution to local potential
     Polarization accuracy = 5.2E-12, # of iterations =  49

     total cpu time spent up to now is     3686.5 secs

     total energy              =   -3435.07626593 Ry
     estimated scf accuracy    <       0.02111896 Ry
     electrostatic embedding   =      -0.07027752 Ry
     cavitation energy         =       0.02129394 Ry
     PV energy                 =      -0.07971343 Ry
     correction to one-el term =     184.54937758 Ry

     iteration # 13     ecut=    50.00 Ry     beta= 0.70
     Davidson diagonalization with overlap
     ethr =  5.77E-06,  avg # of iterations =  1.0

     negative rho (up, down):  9.311E-05 0.000E+00

     add environment contribution to local potential
     Polarization accuracy = 5.1E-12, # of iterations =  47

     total cpu time spent up to now is     3914.5 secs

     total energy              =   -3435.07671856 Ry
     estimated scf accuracy    <       0.01010365 Ry
     electrostatic embedding   =      -0.06870631 Ry
     cavitation energy         =       0.02120682 Ry
     PV energy                 =      -0.07982675 Ry
     correction to one-el term =     185.31971037 Ry

     iteration # 14     ecut=    50.00 Ry     beta= 0.70
     Davidson diagonalization with overlap
     ethr =  2.76E-06,  avg # of iterations =  8.5

     negative rho (up, down):  6.133E-06 0.000E+00

     add environment contribution to local potential
     Polarization accuracy = 5.3E-12, # of iterations =  45

     total cpu time spent up to now is     4190.3 secs

     total energy              =   -3435.07728833 Ry
     estimated scf accuracy    <       0.00545500 Ry
     electrostatic embedding   =      -0.06558505 Ry
     cavitation energy         =       0.02107429 Ry
     PV energy                 =      -0.08000794 Ry
     correction to one-el term =     186.55371163 Ry

     iteration # 15     ecut=    50.00 Ry     beta= 0.70
     Davidson diagonalization with overlap
     ethr =  1.49E-06,  avg # of iterations =  9.0

     negative rho (up, down):  4.747E-04 0.000E+00

     add environment contribution to local potential
     Polarization accuracy = 8.7E-12, # of iterations =  44

     total cpu time spent up to now is     4460.0 secs

     total energy              =   -3435.07785542 Ry
     estimated scf accuracy    <       0.00294100 Ry
     electrostatic embedding   =      -0.06307724 Ry
     cavitation energy         =       0.02098274 Ry
     PV energy                 =      -0.08012390 Ry
     correction to one-el term =     187.89686662 Ry

     iteration # 16     ecut=    50.00 Ry     beta= 0.70
     Davidson diagonalization with overlap
     ethr =  8.04E-07,  avg # of iterations = 11.0

     negative rho (up, down):  1.086E-03 0.000E+00

     add environment contribution to local potential
     Polarization accuracy = 3.6E-12, # of iterations =  45

     total cpu time spent up to now is     4633.2 secs

     total energy              =   -3435.07857080 Ry
     estimated scf accuracy    <       0.00024505 Ry
     electrostatic embedding   =      -0.05779111 Ry
     cavitation energy         =       0.02085899 Ry
     PV energy                 =      -0.08032798 Ry
     correction to one-el term =     189.59514169 Ry

     iteration # 17     ecut=    50.00 Ry     beta= 0.70
     Davidson diagonalization with overlap
     ethr =  6.70E-08,  avg # of iterations =  6.0

     negative rho (up, down):  6.244E-05 0.000E+00

     add environment contribution to local potential
     Polarization accuracy = 5.8E-12, # of iterations =  45

     total cpu time spent up to now is     4891.3 secs

     total energy              =   -3435.07873914 Ry
     estimated scf accuracy    <       0.00007603 Ry
     electrostatic embedding   =      -0.05545518 Ry
     cavitation energy         =       0.02088503 Ry
     PV energy                 =      -0.08031517 Ry
     correction to one-el term =     189.98541918 Ry

     iteration # 18     ecut=    50.00 Ry     beta= 0.70
     Davidson diagonalization with overlap
     ethr =  2.08E-08,  avg # of iterations =  3.0

     negative rho (up, down):  3.545E-04 0.000E+00

     add environment contribution to local potential
     Polarization accuracy = 6.9E-12, # of iterations =  46

     total cpu time spent up to now is     5071.4 secs

     total energy              =   -3435.07880393 Ry
     estimated scf accuracy    <       0.00005497 Ry
     electrostatic embedding   =      -0.05447990 Ry
     cavitation energy         =       0.02091579 Ry
     PV energy                 =      -0.08028039 Ry
     correction to one-el term =     190.00516903 Ry

     iteration # 19     ecut=    50.00 Ry     beta= 0.70
     Davidson diagonalization with overlap
     ethr =  1.50E-08,  avg # of iterations =  3.0

     negative rho (up, down):  1.157E-03 0.000E+00

     add environment contribution to local potential
     Polarization accuracy = 8.3E-12, # of iterations =  45

     total cpu time spent up to now is     5227.3 secs

     total energy              =   -3435.07885229 Ry
     estimated scf accuracy    <       0.00003773 Ry
     electrostatic embedding   =      -0.05345002 Ry
     cavitation energy         =       0.02093042 Ry
     PV energy                 =      -0.08026383 Ry
     correction to one-el term =     190.14609132 Ry

     iteration # 20     ecut=    50.00 Ry     beta= 0.70
     Davidson diagonalization with overlap
     ethr =  1.03E-08,  avg # of iterations =  3.0

     negative rho (up, down):  4.623E-04 0.000E+00

     add environment contribution to local potential
     Polarization accuracy = 1.0E-11, # of iterations =  46

     total cpu time spent up to now is     5456.6 secs

     total energy              =   -3435.07886311 Ry
     estimated scf accuracy    <       0.00001772 Ry
     electrostatic embedding   =      -0.05278148 Ry
     cavitation energy         =       0.02092784 Ry
     PV energy                 =      -0.08026504 Ry
     correction to one-el term =     190.28267667 Ry

     iteration # 21     ecut=    50.00 Ry     beta= 0.70
     Davidson diagonalization with overlap
     ethr =  4.84E-09,  avg # of iterations =  3.0

     negative rho (up, down):  1.516E-04 0.000E+00

     add environment contribution to local potential
     Polarization accuracy = 2.7E-12, # of iterations =  47

     total cpu time spent up to now is     5747.2 secs

     total energy              =   -3435.07887568 Ry
     estimated scf accuracy    <       0.00000765 Ry
     electrostatic embedding   =      -0.05209839 Ry
     cavitation energy         =       0.02094074 Ry
     PV energy                 =      -0.08024956 Ry
     correction to one-el term =     190.30654311 Ry

     iteration # 22     ecut=    50.00 Ry     beta= 0.70
     Davidson diagonalization with overlap
     ethr =  2.09E-09,  avg # of iterations =  3.0

     negative rho (up, down):  1.133E-04 0.000E+00

     add environment contribution to local potential
     Polarization accuracy = 2.6E-12, # of iterations =  46

     total cpu time spent up to now is     5900.2 secs

     total energy              =   -3435.07887718 Ry
     estimated scf accuracy    <       0.00000278 Ry
     electrostatic embedding   =      -0.05187657 Ry
     cavitation energy         =       0.02094499 Ry
     PV energy                 =      -0.08024376 Ry
     correction to one-el term =     190.29535720 Ry

     iteration # 23     ecut=    50.00 Ry     beta= 0.70
     Davidson diagonalization with overlap
     ethr =  7.59E-10,  avg # of iterations =  2.0

     negative rho (up, down):  1.605E-04 0.000E+00

     add environment contribution to local potential
     Polarization accuracy = 8.6E-12, # of iterations =  46

     total cpu time spent up to now is     6151.4 secs

     total energy              =   -3435.07887758 Ry
     estimated scf accuracy    <       0.00000151 Ry
     electrostatic embedding   =      -0.05177520 Ry
     cavitation energy         =       0.02094396 Ry
     PV energy                 =      -0.08024487 Ry
     correction to one-el term =     190.29028744 Ry

     iteration # 24     ecut=    50.00 Ry     beta= 0.70
     Davidson diagonalization with overlap
     ethr =  4.12E-10,  avg # of iterations =  2.0

     negative rho (up, down):  1.345E-04 0.000E+00

     add environment contribution to local potential
     Polarization accuracy = 5.0E-12, # of iterations =  46

     total cpu time spent up to now is     6430.5 secs

     total energy              =   -3435.07887810 Ry
     estimated scf accuracy    <       0.00000047 Ry
     electrostatic embedding   =      -0.05169666 Ry
     cavitation energy         =       0.02094216 Ry
     PV energy                 =      -0.08024809 Ry
     correction to one-el term =     190.29984462 Ry

     iteration # 25     ecut=    50.00 Ry     beta= 0.70
     Davidson diagonalization with overlap
     ethr =  1.29E-10,  avg # of iterations =  3.0

     negative rho (up, down):  1.292E-04 0.000E+00

     add environment contribution to local potential
     Polarization accuracy = 8.9E-12, # of iterations =  46

     total cpu time spent up to now is     6650.3 secs

     total energy              =   -3435.07887842 Ry
     estimated scf accuracy    <       0.00000017 Ry
     electrostatic embedding   =      -0.05163917 Ry
     cavitation energy         =       0.02094195 Ry
     PV energy                 =      -0.08024982 Ry
     correction to one-el term =     190.29556493 Ry

     iteration # 26     ecut=    50.00 Ry     beta= 0.70
     Davidson diagonalization with overlap
     ethr =  4.70E-11,  avg # of iterations =  2.0

     negative rho (up, down):  1.340E-04 0.000E+00

     add environment contribution to local potential
     Polarization accuracy = 9.3E-12, # of iterations =  46

     total cpu time spent up to now is     6921.9 secs

     total energy              =   -3435.07887880 Ry
     estimated scf accuracy    <       0.00000012 Ry
     electrostatic embedding   =      -0.05167248 Ry
     cavitation energy         =       0.02094167 Ry
     PV energy                 =      -0.08025055 Ry
     correction to one-el term =     190.29197415 Ry

     iteration # 27     ecut=    50.00 Ry     beta= 0.70
     Davidson diagonalization with overlap
     ethr =  3.16E-11,  avg # of iterations =  2.0

     negative rho (up, down):  1.390E-04 0.000E+00

     add environment contribution to local potential
     Polarization accuracy = 2.6E-12, # of iterations =  48

     total cpu time spent up to now is     7150.9 secs

     total energy              =   -3435.07887917 Ry
     estimated scf accuracy    <       0.00000008 Ry
     electrostatic embedding   =      -0.05166662 Ry
     cavitation energy         =       0.02094146 Ry
     PV energy                 =      -0.08025156 Ry
     correction to one-el term =     190.29252782 Ry

     iteration # 28     ecut=    50.00 Ry     beta= 0.70
     Davidson diagonalization with overlap
     ethr =  2.22E-11,  avg # of iterations =  2.0

     negative rho (up, down):  1.396E-04 0.000E+00

     add environment contribution to local potential
     Polarization accuracy = 9.4E-12, # of iterations =  46

     total cpu time spent up to now is     7439.9 secs

     total energy              =   -3435.07887948 Ry
     estimated scf accuracy    <       0.00000007 Ry
     electrostatic embedding   =      -0.05167295 Ry
     cavitation energy         =       0.02094140 Ry
     PV energy                 =      -0.08025191 Ry
     correction to one-el term =     190.29353875 Ry

     iteration # 29     ecut=    50.00 Ry     beta= 0.70
     Davidson diagonalization with overlap
     ethr =  1.95E-11,  avg # of iterations =  1.0

     negative rho (up, down):  1.432E-04 0.000E+00

     add environment contribution to local potential
     Polarization accuracy = 9.3E-12, # of iterations =  46

     total cpu time spent up to now is     7688.8 secs

     total energy              =   -3435.07887970 Ry
     estimated scf accuracy    <       0.00000007 Ry
     electrostatic embedding   =      -0.05167068 Ry
     cavitation energy         =       0.02094139 Ry
     PV energy                 =      -0.08025207 Ry
     correction to one-el term =     190.29439125 Ry

     iteration # 30     ecut=    50.00 Ry     beta= 0.70
     Davidson diagonalization with overlap
     ethr =  1.78E-11,  avg # of iterations =  1.0

     negative rho (up, down):  1.453E-04 0.000E+00

     add environment contribution to local potential
     Polarization accuracy = 9.2E-12, # of iterations =  46

     total cpu time spent up to now is     7958.5 secs

     total energy              =   -3435.07888033 Ry
     estimated scf accuracy    <       0.00000007 Ry
     electrostatic embedding   =      -0.05166484 Ry
     cavitation energy         =       0.02094133 Ry
     PV energy                 =      -0.08025229 Ry
     correction to one-el term =     190.29678126 Ry

     iteration # 31     ecut=    50.00 Ry     beta= 0.70
     Davidson diagonalization with overlap
     ethr =  1.78E-11,  avg # of iterations =  2.0

     negative rho (up, down):  1.533E-04 0.000E+00

     add environment contribution to local potential
     Polarization accuracy = 9.1E-12, # of iterations =  46

     total cpu time spent up to now is     8261.6 secs

     total energy              =   -3435.07888034 Ry
     estimated scf accuracy    <       0.00000006 Ry
     electrostatic embedding   =      -0.05166035 Ry
     cavitation energy         =       0.02094133 Ry
     PV energy                 =      -0.08025212 Ry
     correction to one-el term =     190.29723270 Ry

     iteration # 32     ecut=    50.00 Ry     beta= 0.70
     Davidson diagonalization with overlap
     ethr =  1.64E-11,  avg # of iterations =  2.0

     negative rho (up, down):  1.683E-04 0.000E+00

     add environment contribution to local potential
     Polarization accuracy = 9.2E-12, # of iterations =  45

     total cpu time spent up to now is     8494.6 secs

     total energy              =   -3435.07888131 Ry
     estimated scf accuracy    <       0.00000006 Ry
     electrostatic embedding   =      -0.05165340 Ry
     cavitation energy         =       0.02094132 Ry
     PV energy                 =      -0.08025199 Ry
     correction to one-el term =     190.30007226 Ry

     iteration # 33     ecut=    50.00 Ry     beta= 0.70
     Davidson diagonalization with overlap
     ethr =  1.58E-11,  avg # of iterations =  2.0

     negative rho (up, down):  1.773E-04 0.000E+00

     add environment contribution to local potential
     Polarization accuracy = 7.9E-12, # of iterations =  46

     total cpu time spent up to now is     8696.8 secs

     total energy              =   -3435.07888449 Ry
     estimated scf accuracy    <       0.00000004 Ry
     electrostatic embedding   =      -0.05163177 Ry
     cavitation energy         =       0.02094110 Ry
     PV energy                 =      -0.08025234 Ry
     correction to one-el term =     190.30518958 Ry

     iteration # 34     ecut=    50.00 Ry     beta= 0.70
     Davidson diagonalization with overlap
     ethr =  1.21E-11,  avg # of iterations =  4.0

     negative rho (up, down):  1.766E-04 0.000E+00

     add environment contribution to local potential
     Polarization accuracy = 8.1E-12, # of iterations =  45

     total cpu time spent up to now is     8922.8 secs

     total energy              =   -3435.07888829 Ry
     estimated scf accuracy    <       0.00000004 Ry
     electrostatic embedding   =      -0.05162680 Ry
     cavitation energy         =       0.02094096 Ry
     PV energy                 =      -0.08025232 Ry
     correction to one-el term =     190.30573236 Ry

     iteration # 35     ecut=    50.00 Ry     beta= 0.70
     Davidson diagonalization with overlap
     ethr =  1.01E-11,  avg # of iterations =  2.0

     negative rho (up, down):  1.705E-04 0.000E+00

     add environment contribution to local potential
     Polarization accuracy = 7.0E-12, # of iterations =  46

     total cpu time spent up to now is     9162.9 secs

     total energy              =   -3435.07889033 Ry
     estimated scf accuracy    <       0.00000004 Ry
     electrostatic embedding   =      -0.05162358 Ry
     cavitation energy         =       0.02094106 Ry
     PV energy                 =      -0.08025190 Ry
     correction to one-el term =     190.30492976 Ry

     iteration # 36     ecut=    50.00 Ry     beta= 0.70
     Davidson diagonalization with overlap
     ethr =  1.01E-11,  avg # of iterations =  2.5

     negative rho (up, down):  1.628E-04 0.000E+00

     add environment contribution to local potential
     Polarization accuracy = 7.2E-12, # of iterations =  45

     total cpu time spent up to now is     9361.8 secs

     total energy              =   -3435.07889431 Ry
     estimated scf accuracy    <       0.00000002 Ry
     electrostatic embedding   =      -0.05163509 Ry
     cavitation energy         =       0.02094106 Ry
     PV energy                 =      -0.08025214 Ry
     correction to one-el term =     190.30212275 Ry

     iteration # 37     ecut=    50.00 Ry     beta= 0.70
     Davidson diagonalization with overlap
     ethr =  5.37E-12,  avg # of iterations =  3.5

     negative rho (up, down):  1.517E-04 0.000E+00

     add environment contribution to local potential
     Polarization accuracy = 6.1E-12, # of iterations =  45

     total cpu time spent up to now is     9580.5 secs

     total energy              =   -3435.07889592 Ry
     estimated scf accuracy    <       0.00000002 Ry
     electrostatic embedding   =      -0.05164138 Ry
     cavitation energy         =       0.02094114 Ry
     PV energy                 =      -0.08025207 Ry
     correction to one-el term =     190.30026755 Ry

     iteration # 38     ecut=    50.00 Ry     beta= 0.70
     Davidson diagonalization with overlap
     ethr =  4.16E-12,  avg # of iterations =  4.0

     negative rho (up, down):  1.464E-04 0.000E+00

     add environment contribution to local potential
     Polarization accuracy = 5.8E-12, # of iterations =  46

     total cpu time spent up to now is     9821.5 secs

     total energy              =   -3435.07890048 Ry
     estimated scf accuracy    <          7.5E-09 Ry
     electrostatic embedding   =      -0.05165376 Ry
     cavitation energy         =       0.02094125 Ry
     PV energy                 =      -0.08025208 Ry
     correction to one-el term =     190.29759350 Ry

     iteration # 39     ecut=    50.00 Ry     beta= 0.70
     Davidson diagonalization with overlap
     ethr =  2.05E-12,  avg # of iterations =  3.5

     negative rho (up, down):  1.441E-04 0.000E+00

     add environment contribution to local potential
     Polarization accuracy = 3.7E-12, # of iterations =  46

     total cpu time spent up to now is    10031.0 secs

     total energy              =   -3435.07890205 Ry
     estimated scf accuracy    <          3.6E-09 Ry
     electrostatic embedding   =      -0.05165973 Ry
     cavitation energy         =       0.02094132 Ry
     PV energy                 =      -0.08025204 Ry
     correction to one-el term =     190.29660232 Ry

     iteration # 40     ecut=    50.00 Ry     beta= 0.70
     Davidson diagonalization with overlap
     ethr =  9.72E-13,  avg # of iterations =  2.0

     negative rho (up, down):  1.441E-04 0.000E+00

     add environment contribution to local potential
     Polarization accuracy = 4.3E-12, # of iterations =  46

     total cpu time spent up to now is    10209.4 secs

     total energy              =   -3435.07890263 Ry
     estimated scf accuracy    <          1.6E-09 Ry
     electrostatic embedding   =      -0.05166268 Ry
     cavitation energy         =       0.02094135 Ry
     PV energy                 =      -0.08025202 Ry
     correction to one-el term =     190.29629101 Ry

     iteration # 41     ecut=    50.00 Ry     beta= 0.70
     Davidson diagonalization with overlap
     ethr =  4.39E-13,  avg # of iterations =  2.0

     negative rho (up, down):  1.493E-04 0.000E+00

     the potential shift due to the Gaussian-smeared nuclei is    -1.3426 ev

     total cpu time spent up to now is    10511.4 secs

     End of self-consistent calculation

          k = 0.2500 0.2752 0.0000 ( 34780 PWs)   bands (ev):

   -78.0177 -78.0044 -77.4838 -77.4712 -77.3723 -77.3597 -77.2906 -77.2813
   -77.2684 -77.2551 -77.1313 -77.0341 -48.5569 -48.5436 -48.0367 -48.0240
   -47.8973 -47.8841 -47.8510 -47.8381 -47.7801 -47.6589 -47.6397 -47.6264
   -47.5116 -47.4987 -47.3441 -47.3252 -47.3136 -47.2675 -47.2658 -47.2547
   -47.2533 -47.2299 -47.2176 -47.1933 -47.1778 -47.1462 -47.1340 -47.1252
   -47.1151 -47.0934 -47.0806 -47.0763 -47.0602 -47.0267 -46.9995 -46.8721
   -24.0564 -23.9904 -23.7298 -23.6286 -23.6135 -23.5330 -23.5111 -23.4228
   -23.4022 -23.2960 -22.8961 -22.7703 -22.7371 -22.7176 -22.6702 -22.6686
   -22.5879 -22.5517 -22.5409 -22.5027 -22.4313 -22.3956 -22.3828 -22.3200
   -22.3043 -22.0548 -21.7299 -21.6519 -12.2685 -12.1658 -12.0559 -11.9771
   -11.9040 -11.7043 -11.6716 -11.4839 -11.4469 -11.3768 -11.2714 -11.0908
   -11.0805 -11.0166 -10.9974 -10.9797 -10.9295 -10.7795 -10.7210 -10.6386
   -10.5650 -10.4894 -10.4324 -10.3631 -10.2957 -10.2101 -10.0815 -10.0093
    -9.8190  -9.7895  -9.6814  -9.5510  -9.4719  -9.3262  -9.3108  -9.2966
    -9.1974  -9.1606  -9.1416  -9.0078  -8.9176  -8.9026  -8.8223  -8.7117
    -8.6933  -8.5923  -8.5723  -8.3627  -8.3018  -8.2309  -8.1837  -8.1385
    -8.1306  -8.0626  -8.0515  -8.0177  -7.9186  -7.8278  -7.8020  -7.7315
    -7.6799  -7.6340  -7.5430  -7.4494  -7.4159  -7.3358  -7.2972  -7.0391
    -7.0218  -6.9226  -6.9057  -6.7870  -6.7629  -6.6675  -6.5904  -6.5763
    -6.5319  -6.4284  -6.3567  -6.2725  -6.2356  -6.0989  -6.0871  -6.0460
    -4.9525  -4.9214  -4.7413  -4.7373  -4.6704  -4.6575  -4.6346  -4.5987
    -4.5942  -4.5459  -4.5365  -4.5110  -4.4726  -4.3957  -4.3611  -4.3216
    -4.2189  -4.1845  -4.1525  -4.1027  -4.0553  -4.0487  -3.7740  -3.7691
    -3.5948  -3.5902  -3.5143  -3.4035  -3.0926  -3.0802  -3.0457  -2.8956
    -2.7913  -2.7700  -2.6092  -2.4645  -1.9991  -1.9203  -1.8871  -1.8066
    -1.5888  -1.4616  -0.9844  -0.6586  -0.5910  -0.3447  -0.2242  -0.1424
    -0.0912  -0.0113   0.0977   0.1782   0.3982   0.5935   0.6279   1.0247
     1.1394   1.1843   1.2482   1.2638

          k =-0.2500 0.2752 0.0000 ( 34780 PWs)   bands (ev):

   -78.0177 -78.0044 -77.4838 -77.4712 -77.3723 -77.3597 -77.2906 -77.2813
   -77.2684 -77.2551 -77.1313 -77.0341 -48.5569 -48.5436 -48.0367 -48.0240
   -47.8975 -47.8843 -47.8508 -47.8380 -47.7801 -47.6589 -47.6398 -47.6265
   -47.5116 -47.4987 -47.3441 -47.3254 -47.3138 -47.2683 -47.2641 -47.2557
   -47.2514 -47.2306 -47.2184 -47.1934 -47.1778 -47.1462 -47.1340 -47.1252
   -47.1151 -47.0933 -47.0805 -47.0763 -47.0602 -47.0265 -46.9996 -46.8721
   -24.0579 -23.9921 -23.7301 -23.6267 -23.6115 -23.5327 -23.5095 -23.4222
   -23.4023 -23.2941 -22.9021 -22.7640 -22.7399 -22.7186 -22.6757 -22.6726
   -22.5894 -22.5416 -22.5292 -22.5131 -22.4337 -22.3984 -22.3848 -22.3182
   -22.3014 -22.0533 -21.7300 -21.6526 -12.2626 -12.1556 -12.0502 -11.9793
   -11.9036 -11.7092 -11.6761 -11.4978 -11.4664 -11.3702 -11.2821 -11.1108
   -11.0959 -11.0358 -10.9863 -10.9420 -10.9007 -10.7928 -10.7208 -10.6751
   -10.5211 -10.4734 -10.4389 -10.3675 -10.3053 -10.1925 -10.0590 -10.0079
    -9.8604  -9.7789  -9.6256  -9.5338  -9.4982  -9.3894  -9.3018  -9.2676
    -9.2058  -9.1788  -9.0990  -9.0519  -8.9048  -8.9034  -8.8251  -8.7324
    -8.6691  -8.5823  -8.5177  -8.4442  -8.3327  -8.2217  -8.1775  -8.1355
    -8.1218  -8.0523  -8.0160  -8.0019  -7.9450  -7.8195  -7.7973  -7.7811
    -7.6347  -7.6237  -7.5743  -7.4903  -7.4192  -7.2977  -7.2520  -7.0826
    -7.0589  -6.9240  -6.8882  -6.7800  -6.7721  -6.7049  -6.5687  -6.5330
    -6.5160  -6.4213  -6.3701  -6.2591  -6.2512  -6.1561  -6.0613  -6.0306
    -4.9627  -4.9103  -4.7412  -4.7347  -4.7055  -4.6543  -4.6317  -4.6221
    -4.5919  -4.5654  -4.5083  -4.4753  -4.4653  -4.4143  -4.3345  -4.2961
    -4.2199  -4.2121  -4.1258  -4.1223  -4.0709  -4.0331  -3.7996  -3.7423
    -3.6239  -3.5953  -3.4859  -3.4061  -3.1023  -3.0934  -3.0353  -2.8845
    -2.7964  -2.7782  -2.5977  -2.4762  -1.9988  -1.9031  -1.8806  -1.8153
    -1.5893  -1.4599  -0.9877  -0.6596  -0.5964  -0.3442  -0.2113  -0.1496
    -0.1068  -0.0052   0.0997   0.1748   0.4024   0.5941   0.6303   1.0257
     1.1353   1.1905   1.2301   1.2685

     the Fermi energy is    -3.8417 ev

!    total energy              =   -3435.07890261 Ry
     estimated scf accuracy    <          8.3E-10 Ry
     smearing contrib. (-TS)   =       0.07032906 Ry
     internal energy E=F+TS    =   -3435.14923167 Ry

     The total energy is F=E-TS. E is the sum of the following terms:
     one-electron contribution =  -25702.59970961 Ry
     hartree contribution      =   12835.90017950 Ry
     xc contribution           =    -448.46037841 Ry
     ewald contribution        =    9956.33079998 Ry
     one-center paw contrib.   =    -266.50599076 Ry
     electrostatic embedding   =      -0.05166347 Ry
     cavitation energy         =       0.02094136 Ry
     PV energy                 =      -0.08025199 Ry
     correction to one-el term =     190.29684173 Ry

     WARNING: you are using the parabolic pbc correction;
              the potential shift above must be added to 
              band and Fermi energies.

     convergence has been achieved in  41 iterations

     negative rho (up, down):  1.493E-04 0.000E+00

     Forces acting on atoms (cartesian axes, Ry/au):

     atom    1 type  1   force =     0.03323422    0.00764637   -0.02149017
     atom    2 type  1   force =    -0.00186734    0.00047791   -0.01162435
     atom    3 type  1   force =     0.00004849   -0.13740650    0.08385384
     atom    4 type  1   force =    -0.00026410    0.00578672    0.01971516
     atom    5 type  2   force =     0.00536508    0.00558722   -0.01103895
     atom    6 type  2   force =    -0.00446394   -0.00031598   -0.00741816
     atom    7 type  1   force =    -0.00216193    0.07895144    0.00377716
     atom    8 type  1   force =     0.00267783    0.05944972    0.00314024
     atom    9 type  2   force =    -0.00009111   -0.00045916    0.00103720
     atom   10 type  2   force =     0.00117942    0.00904873    0.00627937
     atom   11 type  1   force =    -0.00030006   -0.08167773   -0.00231328
     atom   12 type  1   force =     0.00045932   -0.05781674   -0.00382924
     atom   13 type  1   force =    -0.00157212   -0.00101248    0.01013283
     atom   14 type  1   force =     0.00118453   -0.00154670   -0.00119787
     atom   15 type  1   force =    -0.00187860   -0.00079207   -0.00283825
     atom   16 type  1   force =     0.00071512   -0.00006898    0.01413614
     atom   17 type  2   force =     0.02555059    0.00511756    0.00000000
     atom   18 type  2   force =    -0.02328824   -0.00136605    0.00000000
     atom   19 type  1   force =    -0.00842108   -0.03646653    0.00000000
     atom   20 type  1   force =     0.00492289   -0.10248626    0.00000000
     atom   21 type  2   force =    -0.01196711   -0.00582109    0.00000000
     atom   22 type  2   force =     0.01874189   -0.00475165    0.00000000
     atom   23 type  1   force =    -0.00620232    0.04250770    0.00000000
     atom   24 type  1   force =     0.00272095    0.10729250    0.00000000
     atom   25 type  1   force =    -0.00187860   -0.00079207    0.00283825
     atom   26 type  1   force =     0.00071512   -0.00006898   -0.01413614
     atom   27 type  1   force =    -0.00157212   -0.00101248   -0.01013283
     atom   28 type  1   force =     0.00118453   -0.00154670    0.00119787
     atom   29 type  2   force =     0.00536508    0.00558722    0.01103895
     atom   30 type  2   force =    -0.00446394   -0.00031598    0.00741816
     atom   31 type  1   force =    -0.00216193    0.07895144   -0.00377716
     atom   32 type  1   force =     0.00267783    0.05944972   -0.00314024
     atom   33 type  2   force =    -0.00009111   -0.00045916   -0.00103720
     atom   34 type  2   force =     0.00117942    0.00904873   -0.00627937
     atom   35 type  1   force =    -0.00030006   -0.08167773    0.00231328
     atom   36 type  1   force =     0.00045932   -0.05781674    0.00382924
     atom   37 type  1   force =     0.00004849   -0.13740650   -0.08385384
     atom   38 type  1   force =    -0.00026410    0.00578672   -0.01971516
     atom   39 type  1   force =     0.03323422    0.00764637    0.02149017
     atom   40 type  1   force =    -0.00186734    0.00047791    0.01162435
     atom   41 type  3   force =    -0.03295818   -0.00405086    0.00975335
     atom   42 type  3   force =    -0.03295818   -0.00405086   -0.00975335
     atom   43 type  3   force =    -0.00029715    0.11895658   -0.07718044
     atom   44 type  3   force =    -0.00029715    0.11895658    0.07718044
     atom   45 type  3   force =    -0.00003830   -0.00277058   -0.01158541
     atom   46 type  3   force =    -0.00003830   -0.00277058    0.01158541
     The non-local contrib.  to forces
     atom    1 type  1   force =     1.70606844    0.25399639    0.42374952
     atom    2 type  1   force =     0.03487431   -0.00510666    1.20844260
     atom    3 type  1   force =     0.01203108    1.39736924    0.00865203
     atom    4 type  1   force =    -0.02774547   -0.55219362   -0.87470228
     atom    5 type  2   force =    -0.01162526   -0.00095094    0.04167625
     atom    6 type  2   force =     0.00963030    0.00065582    0.04078167
     atom    7 type  1   force =     0.04990149   -0.05946250   -0.12082678
     atom    8 type  1   force =    -0.12813453   -0.04527144   -0.05212183
     atom    9 type  2   force =     0.00635862    0.00081634    0.03834576
     atom   10 type  2   force =    -0.01109426    0.01014893   -0.04100641
     atom   11 type  1   force =    -0.04778683    0.05643224    0.00295264
     atom   12 type  1   force =    -0.01924197    0.02477738    0.04960131
     atom   13 type  1   force =    -0.01794692   -0.02087263   -0.01380025
     atom   14 type  1   force =     0.01379523    0.06271273    0.00797926
     atom   15 type  1   force =    -0.01388752   -0.03085134   -0.07331503
     atom   16 type  1   force =    -0.00772712    0.00056918    0.20108250
     atom   17 type  2   force =    -0.01062811    0.00150283    0.00000000
     atom   18 type  2   force =     0.00231666   -0.00305509    0.00000000
     atom   19 type  1   force =     0.05926593    0.10963184    0.00000000
     atom   20 type  1   force =    -0.04628712    0.01409291    0.00000000
     atom   21 type  2   force =     0.01426504   -0.00033874    0.00000000
     atom   22 type  2   force =    -0.01544171   -0.00040919    0.00000000
     atom   23 type  1   force =     0.02482945   -0.12344755    0.00000000
     atom   24 type  1   force =    -0.01308078   -0.02252708    0.00000000
     atom   25 type  1   force =    -0.01388752   -0.03085134    0.07331503
     atom   26 type  1   force =    -0.00772712    0.00056918   -0.20108250
     atom   27 type  1   force =    -0.01794692   -0.02087263    0.01380025
     atom   28 type  1   force =     0.01379523    0.06271273   -0.00797926
     atom   29 type  2   force =    -0.01162526   -0.00095094   -0.04167625
     atom   30 type  2   force =     0.00963030    0.00065582   -0.04078167
     atom   31 type  1   force =     0.04990149   -0.05946250    0.12082678
     atom   32 type  1   force =    -0.12813453   -0.04527144    0.05212183
     atom   33 type  2   force =     0.00635862    0.00081634   -0.03834576
     atom   34 type  2   force =    -0.01109426    0.01014893    0.04100641
     atom   35 type  1   force =    -0.04778683    0.05643224   -0.00295264
     atom   36 type  1   force =    -0.01924197    0.02477738   -0.04960131
     atom   37 type  1   force =     0.01203108    1.39736924   -0.00865203
     atom   38 type  1   force =    -0.02774547   -0.55219362    0.87470228
     atom   39 type  1   force =     1.70606844    0.25399639   -0.42374952
     atom   40 type  1   force =     0.03487431   -0.00510666   -1.20844260
     atom   41 type  3   force =    -0.09008738   -0.01358946    0.03306482
     atom   42 type  3   force =    -0.09008738   -0.01358946   -0.03306482
     atom   43 type  3   force =    -0.00011231   -0.11017634    0.07385227
     atom   44 type  3   force =    -0.00011231   -0.11017634   -0.07385227
     atom   45 type  3   force =     0.00108860    0.03053037    0.11046334
     atom   46 type  3   force =     0.00108860    0.03053037   -0.11046334
     The ionic contribution  to forces
     atom    1 type  1   force =    -3.25057403    0.10404736  -96.73399851
     atom    2 type  1   force =     0.04896798    0.28654521 -101.50123733
     atom    3 type  1   force =    -0.24266839   -3.82906672  -92.63016891
     atom    4 type  1   force =     0.25555779    0.65502522  -91.24332735
     atom    5 type  2   force =     0.30885722   -1.02846722 -170.67064115
     atom    6 type  2   force =    -0.31464070   -1.20755130 -171.98912447
     atom    7 type  1   force =     0.53529646    1.66863649  -61.23613497
     atom    8 type  1   force =    -0.09346124    1.21066249  -63.56791886
     atom    9 type  2   force =    -0.97478185    1.39736931 -169.28173808
     atom   10 type  2   force =     0.84213202    1.09036958 -175.66151365
     atom   11 type  1   force =     0.81263161   -1.48346318  -64.94676695
     atom   12 type  1   force =    -0.37543574   -0.85544326  -66.34453666
     atom   13 type  1   force =     0.06829157   -0.15715778  -38.31021840
     atom   14 type  1   force =    -0.05215783   -0.49277155  -38.46510031
     atom   15 type  1   force =    -0.06764408    0.07922924  -24.80335843
     atom   16 type  1   force =     0.15030337    0.26196539  -27.76473132
     atom   17 type  2   force =     0.41995653    0.43509512   -0.00044866
     atom   18 type  2   force =    -0.38430822    0.27350174   -0.00045766
     atom   19 type  1   force =    -0.35438052   -0.31272005   -0.00008537
     atom   20 type  1   force =     0.26332917   -0.95482980   -0.00008213
     atom   21 type  2   force =     0.90529832   -0.19191562   -0.00025770
     atom   22 type  2   force =    -1.11757752   -0.19910091   -0.00024695
     atom   23 type  1   force =    -0.13270303    0.44448030   -0.00008407
     atom   24 type  1   force =     0.03079808    1.05316810   -0.00008145
     atom   25 type  1   force =    -0.06764364    0.07922759   24.80313145
     atom   26 type  1   force =     0.15031055    0.26196618   27.76458704
     atom   27 type  1   force =     0.06829526   -0.15715666   38.31051092
     atom   28 type  1   force =    -0.05216069   -0.49278043   38.46540657
     atom   29 type  2   force =     0.30886757   -1.02846128  170.67091399
     atom   30 type  2   force =    -0.31465039   -1.20754514  171.98939721
     atom   31 type  1   force =     0.53529854    1.66860426   61.23620032
     atom   32 type  1   force =    -0.09346199    1.21063452   63.56798806
     atom   33 type  2   force =    -0.97479424    1.39737236  169.28186544
     atom   34 type  2   force =     0.84213762    1.09036622  175.66166557
     atom   35 type  1   force =     0.81263145   -1.48343158   64.94682994
     atom   36 type  1   force =    -0.37543461   -0.85541666   66.34460430
     atom   37 type  1   force =    -0.24267097   -3.82935099   92.63025404
     atom   38 type  1   force =     0.25556322    0.65515389   91.24313421
     atom   39 type  1   force =    -3.25063934    0.10404493   96.73411578
     atom   40 type  1   force =     0.04897095    0.28654501  101.50130596
     atom   41 type  3   force =     2.59100752    0.51149819  -16.43492423
     atom   42 type  3   force =     2.59107350    0.51150795   16.43492828
     atom   43 type  3   force =    -0.07208518    2.35177003  -17.53473896
     atom   44 type  3   force =    -0.07208405    2.35203433   17.53474701
     atom   45 type  3   force =     0.01519333   -0.83703086  -18.45869865
     atom   46 type  3   force =     0.01518864   -0.83716000   18.45903509
     The local contribution  to forces
     atom    1 type  1   force =     1.51482520   -0.30761583   96.24748278
     atom    2 type  1   force =    -0.02801812   -0.30417549  100.24418356
     atom    3 type  1   force =     0.21253554    2.27646407   92.69551423
     atom    4 type  1   force =    -0.21305013   -0.07948619   92.22637418
     atom    5 type  2   force =    -0.32547280    1.03181847  170.66014482
     atom    6 type  2   force =     0.33540778    1.20201973  171.95327957
     atom    7 type  1   force =    -0.59153077   -1.52092450   61.36513892
     atom    8 type  1   force =     0.22812967   -1.09205678   63.60909265
     atom    9 type  2   force =     0.93821400   -1.38533930  169.20025044
     atom   10 type  2   force =    -0.79623007   -1.09857940  175.68722803
     atom   11 type  1   force =    -0.77811770    1.33628367   64.94503039
     atom   12 type  1   force =     0.40769355    0.75926156   66.27225032
     atom   13 type  1   force =    -0.05461639    0.17556766   38.33249176
     atom   14 type  1   force =     0.04222140    0.42946293   38.46208360
     atom   15 type  1   force =     0.07776882   -0.04915059   24.87009015
     atom   16 type  1   force =    -0.14011927   -0.26265162   27.57959244
     atom   17 type  2   force =    -0.38593236   -0.43196905   -0.00582639
     atom   18 type  2   force =     0.36097436   -0.27177924   -0.00583105
     atom   19 type  1   force =     0.28634043    0.16751068   -0.00244948
     atom   20 type  1   force =    -0.21159827    0.83762838   -0.00247882
     atom   21 type  2   force =    -0.93380544    0.18661844   -0.00605721
     atom   22 type  2   force =     1.15423463    0.19498575   -0.00611012
     atom   23 type  1   force =     0.10080969   -0.27956403   -0.00245590
     atom   24 type  1   force =    -0.01401855   -0.92282916   -0.00248257
     atom   25 type  1   force =     0.07777087   -0.04915333  -24.87185960
     atom   26 type  1   force =    -0.14010829   -0.26266551  -27.58135024
     atom   27 type  1   force =    -0.05461711    0.17557136  -38.33428334
     atom   28 type  1   force =     0.04222271    0.42945925  -38.46385263
     atom   29 type  2   force =    -0.32546094    1.03181943 -170.66627402
     atom   30 type  2   force =     0.33539709    1.20202828 -171.95938772
     atom   31 type  1   force =    -0.59151825   -1.52090534  -61.36759634
     atom   32 type  1   force =     0.22811385   -1.09203741  -63.61156804
     atom   33 type  2   force =     0.93822986   -1.38539509 -169.20609632
     atom   34 type  2   force =    -0.79627160   -1.09857039 -175.69293461
     atom   35 type  1   force =    -0.77808884    1.33625297  -64.94750451
     atom   36 type  1   force =     0.40766372    0.75923619  -66.27472988
     atom   37 type  1   force =     0.21253952    2.27661723  -92.69933131
     atom   38 type  1   force =    -0.21305391   -0.07954349  -92.23009551
     atom   39 type  1   force =     1.51485571   -0.30764556  -96.24906133
     atom   40 type  1   force =    -0.02807109   -0.30416541 -100.24557832
     atom   41 type  3   force =    -2.54661150   -0.49880901   16.41704406
     atom   42 type  3   force =    -2.54661150   -0.49880901  -16.41704406
     atom   43 type  3   force =     0.06659861   -2.12209688   17.38732443
     atom   44 type  3   force =     0.06659861   -2.12209688  -17.38732443
     atom   45 type  3   force =    -0.01261135    0.81016604   18.38749310
     atom   46 type  3   force =    -0.01261135    0.81016604  -18.38749310
     The core correction contribution to forces
     atom    1 type  1   force =    -0.01750195   -0.00269922   -0.00438870
     atom    2 type  1   force =    -0.00010467    0.00002560   -0.00998649
     atom    3 type  1   force =    -0.00012962   -0.01224478   -0.00168434
     atom    4 type  1   force =     0.00029199    0.00551431    0.00818840
     atom    5 type  2   force =     0.00000000    0.00000000    0.00000000
     atom    6 type  2   force =     0.00000000    0.00000000    0.00000000
     atom    7 type  1   force =    -0.00077741   -0.00110276    0.00116605
     atom    8 type  1   force =     0.00153881   -0.00088464    0.00056301
     atom    9 type  2   force =     0.00000000    0.00000000    0.00000000
     atom   10 type  2   force =     0.00000000    0.00000000    0.00000000
     atom   11 type  1   force =     0.00022141    0.00123673    0.00005116
     atom   12 type  1   force =     0.00045157    0.00111994   -0.00041896
     atom   13 type  1   force =     0.00015737    0.00027205    0.00012633
     atom   14 type  1   force =    -0.00011997   -0.00070104    0.00008163
     atom   15 type  1   force =     0.00021060    0.00039886    0.00040456
     atom   16 type  1   force =     0.00005985   -0.00009989   -0.00299272
     atom   17 type  2   force =     0.00000000    0.00000000    0.00000000
     atom   18 type  2   force =     0.00000000    0.00000000    0.00000000
     atom   19 type  1   force =    -0.00055994   -0.00021146   -0.00000210
     atom   20 type  1   force =     0.00041208    0.00141661   -0.00000225
     atom   21 type  2   force =     0.00000000    0.00000000    0.00000000
     atom   22 type  2   force =     0.00000000    0.00000000    0.00000000
     atom   23 type  1   force =    -0.00022052    0.00030575   -0.00000206
     atom   24 type  1   force =     0.00010710   -0.00137039   -0.00000222
     atom   25 type  1   force =     0.00021054    0.00039904   -0.00040673
     atom   26 type  1   force =     0.00005992   -0.00009999    0.00299063
     atom   27 type  1   force =     0.00015736    0.00027203   -0.00012847
     atom   28 type  1   force =    -0.00011996   -0.00070118   -0.00008377
     atom   29 type  2   force =     0.00000000    0.00000000    0.00000000
     atom   30 type  2   force =     0.00000000    0.00000000    0.00000000
     atom   31 type  1   force =    -0.00077742   -0.00110274   -0.00116796
     atom   32 type  1   force =     0.00153879   -0.00088451   -0.00056495
     atom   33 type  2   force =     0.00000000    0.00000000    0.00000000
     atom   34 type  2   force =     0.00000000    0.00000000    0.00000000
     atom   35 type  1   force =     0.00022150    0.00123666   -0.00005330
     atom   36 type  1   force =     0.00045148    0.00111979    0.00041695
     atom   37 type  1   force =    -0.00012953   -0.01224654    0.00168062
     atom   38 type  1   force =     0.00029196    0.00551530   -0.00819404
     atom   39 type  1   force =    -0.01750278   -0.00269934    0.00438639
     atom   40 type  1   force =    -0.00010493    0.00002572    0.00998475
     atom   41 type  3   force =     0.00000000    0.00000000    0.00000000
     atom   42 type  3   force =     0.00000000    0.00000000    0.00000000
     atom   43 type  3   force =     0.00000000    0.00000000    0.00000000
     atom   44 type  3   force =     0.00000000    0.00000000    0.00000000
     atom   45 type  3   force =     0.00000000    0.00000000    0.00000000
     atom   46 type  3   force =     0.00000000    0.00000000    0.00000000
     The Hubbard contrib.    to forces
     atom    1 type  1   force =     0.00000000    0.00000000    0.00000000
     atom    2 type  1   force =     0.00000000    0.00000000    0.00000000
     atom    3 type  1   force =     0.00000000    0.00000000    0.00000000
     atom    4 type  1   force =     0.00000000    0.00000000    0.00000000
     atom    5 type  2   force =     0.00000000    0.00000000    0.00000000
     atom    6 type  2   force =     0.00000000    0.00000000    0.00000000
     atom    7 type  1   force =     0.00000000    0.00000000    0.00000000
     atom    8 type  1   force =     0.00000000    0.00000000    0.00000000
     atom    9 type  2   force =     0.00000000    0.00000000    0.00000000
     atom   10 type  2   force =     0.00000000    0.00000000    0.00000000
     atom   11 type  1   force =     0.00000000    0.00000000    0.00000000
     atom   12 type  1   force =     0.00000000    0.00000000    0.00000000
     atom   13 type  1   force =     0.00000000    0.00000000    0.00000000
     atom   14 type  1   force =     0.00000000    0.00000000    0.00000000
     atom   15 type  1   force =     0.00000000    0.00000000    0.00000000
     atom   16 type  1   force =     0.00000000    0.00000000    0.00000000
     atom   17 type  2   force =     0.00000000    0.00000000    0.00000000
     atom   18 type  2   force =     0.00000000    0.00000000    0.00000000
     atom   19 type  1   force =     0.00000000    0.00000000    0.00000000
     atom   20 type  1   force =     0.00000000    0.00000000    0.00000000
     atom   21 type  2   force =     0.00000000    0.00000000    0.00000000
     atom   22 type  2   force =     0.00000000    0.00000000    0.00000000
     atom   23 type  1   force =     0.00000000    0.00000000    0.00000000
     atom   24 type  1   force =     0.00000000    0.00000000    0.00000000
     atom   25 type  1   force =     0.00000000    0.00000000    0.00000000
     atom   26 type  1   force =     0.00000000    0.00000000    0.00000000
     atom   27 type  1   force =     0.00000000    0.00000000    0.00000000
     atom   28 type  1   force =     0.00000000    0.00000000    0.00000000
     atom   29 type  2   force =     0.00000000    0.00000000    0.00000000
     atom   30 type  2   force =     0.00000000    0.00000000    0.00000000
     atom   31 type  1   force =     0.00000000    0.00000000    0.00000000
     atom   32 type  1   force =     0.00000000    0.00000000    0.00000000
     atom   33 type  2   force =     0.00000000    0.00000000    0.00000000
     atom   34 type  2   force =     0.00000000    0.00000000    0.00000000
     atom   35 type  1   force =     0.00000000    0.00000000    0.00000000
     atom   36 type  1   force =     0.00000000    0.00000000    0.00000000
     atom   37 type  1   force =     0.00000000    0.00000000    0.00000000
     atom   38 type  1   force =     0.00000000    0.00000000    0.00000000
     atom   39 type  1   force =     0.00000000    0.00000000    0.00000000
     atom   40 type  1   force =     0.00000000    0.00000000    0.00000000
     atom   41 type  3   force =     0.00000000    0.00000000    0.00000000
     atom   42 type  3   force =     0.00000000    0.00000000    0.00000000
     atom   43 type  3   force =     0.00000000    0.00000000    0.00000000
     atom   44 type  3   force =     0.00000000    0.00000000    0.00000000
     atom   45 type  3   force =     0.00000000    0.00000000    0.00000000
     atom   46 type  3   force =     0.00000000    0.00000000    0.00000000
     The SCF correction term to forces
     atom    1 type  1   force =    -0.00000422    0.00000152   -0.00001532
     atom    2 type  1   force =     0.00000087   -0.00000093   -0.00001473
     atom    3 type  1   force =     0.00000191   -0.00000188   -0.00001481
     atom    4 type  1   force =    -0.00000206    0.00000178   -0.00000713
     atom    5 type  2   force =     0.00000706   -0.00000014   -0.00003212
     atom    6 type  2   force =    -0.00000761   -0.00000026   -0.00004035
     atom    7 type  1   force =     0.00000239   -0.00000138   -0.00001367
     atom    8 type  1   force =    -0.00000251    0.00000540   -0.00001608
     atom    9 type  2   force =     0.00000150    0.00000145   -0.00004551
     atom   10 type  2   force =    -0.00000225   -0.00000090   -0.00004537
     atom   11 type  1   force =     0.00000190    0.00000146   -0.00001372
     atom   12 type  1   force =    -0.00000140   -0.00000537   -0.00001608
     atom   13 type  1   force =     0.00000566   -0.00000007   -0.00002047
     atom   14 type  1   force =    -0.00000559    0.00000025   -0.00000455
     atom   15 type  1   force =     0.00000480   -0.00000001   -0.00001280
     atom   16 type  1   force =    -0.00000436   -0.00000008   -0.00001248
     atom   17 type  2   force =     0.00000628   -0.00000009    0.00001864
     atom   18 type  2   force =    -0.00000814    0.00000006    0.00001872
     atom   19 type  1   force =     0.00001575   -0.00000274    0.00000686
     atom   20 type  1   force =    -0.00001562   -0.00000756    0.00000689
     atom   21 type  2   force =     0.00001118   -0.00000024    0.00001840
     atom   22 type  2   force =    -0.00001246    0.00000009    0.00001845
     atom   23 type  1   force =     0.00001589    0.00000262    0.00000688
     atom   24 type  1   force =    -0.00001549    0.00000738    0.00000692
     atom   25 type  1   force =     0.00000478    0.00000001    0.00002443
     atom   26 type  1   force =    -0.00000433   -0.00000006    0.00002358
     atom   27 type  1   force =     0.00000558   -0.00000011    0.00002875
     atom   28 type  1   force =    -0.00000551    0.00000023    0.00001295
     atom   29 type  2   force =     0.00000718   -0.00000024    0.00003759
     atom   30 type  2   force =    -0.00000774   -0.00000037    0.00004564
     atom   31 type  1   force =     0.00000239   -0.00000157    0.00001605
     atom   32 type  1   force =    -0.00000252    0.00000519    0.00001815
     atom   33 type  2   force =     0.00000136    0.00000157    0.00005083
     atom   34 type  2   force =    -0.00000209   -0.00000081    0.00004871
     atom   35 type  1   force =     0.00000189    0.00000168    0.00001559
     atom   36 type  1   force =    -0.00000141   -0.00000513    0.00001779
     atom   37 type  1   force =     0.00000184   -0.00000189    0.00001203
     atom   38 type  1   force =    -0.00000199    0.00000174    0.00000446
     atom   39 type  1   force =    -0.00000422    0.00000153    0.00001164
     atom   40 type  1   force =     0.00000090   -0.00000091    0.00001102
     atom   41 type  3   force =    -0.00000055    0.00000000   -0.00000201
     atom   42 type  3   force =    -0.00000057   -0.00000000    0.00000137
     atom   43 type  3   force =     0.00000008    0.00000041   -0.00000243
     atom   44 type  3   force =     0.00000008    0.00000038    0.00000185
     atom   45 type  3   force =    -0.00000004   -0.00000011   -0.00000197
     atom   46 type  3   force =    -0.00000004   -0.00000010    0.00000130

     Total force =     0.408953     Total SCF correction =     0.000158

     BFGS Geometry Optimization
     Energy error            =      0.0E+00 Ry
     Gradient error          =      1.4E-01 Ry/Bohr

     number of scf cycles    =   1
     number of bfgs steps    =   0

     energy             new  =   -3435.0789026081 Ry

     new trust radius        =       0.1609720921 bohr
     new conv_thr            =       0.0000000010 Ry


ATOMIC_POSITIONS (crystal)
O             0.0122801161        0.4675443579        0.2703836540
O             0.4786473979        0.5068364890        0.2728980853
O            -0.0005748714        0.0113120913        0.3024157211
O             0.4974577699        0.0072482106        0.3038412259
Ru            0.2488621073        0.0066431429        0.3586701196
Ru            0.7481594629        0.0061372001        0.3581718266
O             0.2492551400        0.3155677558        0.3609648672
O             0.7497493873        0.3170270174        0.3581271521
Ru            0.0006101293        0.5065635999        0.3583998238
Ru            0.5020630196        0.5041140952        0.3510098501
O             0.2403155526        0.6979767927        0.3564087927
O             0.7568840335        0.6953192250        0.3549181482
O            -0.0036676179        0.0076299269        0.4113831577
O             0.5005286820        0.0011225542        0.4120765226
O            -0.0001177112        0.5102075930        0.4462307481
O             0.4968733880        0.5117040339        0.4408791735
Ru           -0.0034055038        0.0093005812        0.5000010000
Ru            0.4995839239        0.0100207264        0.5000010000
O             0.2493933242        0.1967504754        0.5000010000
O             0.7463043421        0.1986683819        0.5000010000
Ru            0.2547302783        0.5102388835        0.5000010000
Ru            0.7450627297        0.5097788245        0.5000010000
O             0.2477602230        0.8236894055        0.5000010000
O             0.7481996345        0.8211779125        0.5000010000
O            -0.0001177112        0.5102075930        0.5537702519
O             0.4968733880        0.5117040339        0.5591218265
O            -0.0036676179        0.0076299269        0.5886178423
O             0.5005286820        0.0011225542        0.5879244774
Ru            0.2488621073        0.0066431429        0.6413308804
Ru            0.7481594629        0.0061372001        0.6418291734
O             0.2492551400        0.3155677558        0.6390361328
O             0.7497493873        0.3170270174        0.6418738479
Ru            0.0006101293        0.5065635999        0.6416011762
Ru            0.5020630196        0.5041140952        0.6489911499
O             0.2403155526        0.6979767927        0.6435922073
O             0.7568840335        0.6953192250        0.6450828518
O            -0.0005748714        0.0113120913        0.6975862789
O             0.4974577699        0.0072482106        0.6961607741
O             0.0122801161        0.4675443579        0.7296173460
O             0.4786473979        0.5068364890        0.7271029147
H             0.1507784844        0.4899970605        0.2567087157
H             0.1507784844        0.4899970605        0.7432912843
H            -0.0002300920        0.1636857473        0.2758073902
H            -0.0002300920        0.1636857473        0.7241926098
H             0.4959461457       -0.0380164891        0.2609832352
H             0.4959461457       -0.0380164891        0.7390167648



     Writing config-only to output data dir /storage/home/mgm6007/ixd4/Maria/StrainJin_Files/RuO2-110-0-023/RuO2-110-0-023.save/
     NEW-OLD atomic charge density approx. for the potential

     Check: negative core charge=   -0.000001

     negative rho (up, down):  1.389E-04 0.000E+00

     add environment contribution to local potential
     Polarization accuracy = 9.1E-12, # of iterations =  44

     total cpu time spent up to now is    10681.8 secs

     per-process dynamical memory:   215.5 Mb

     Self-consistent Calculation

     iteration #  1     ecut=    50.00 Ry     beta= 0.70
     Davidson diagonalization with overlap
     ethr =  1.00E-06,  avg # of iterations = 14.0

     negative rho (up, down):  1.748E-04 0.000E+00

     add environment contribution to local potential
     Polarization accuracy = 4.2E-12, # of iterations =  45

     total cpu time spent up to now is    10926.8 secs

     total energy              =   -3435.11550403 Ry
     estimated scf accuracy    <       0.06445432 Ry
     electrostatic embedding   =      -0.05100921 Ry
     cavitation energy         =       0.02095707 Ry
     PV energy                 =      -0.08032316 Ry
     correction to one-el term =     190.32686350 Ry

     iteration #  2     ecut=    50.00 Ry     beta= 0.70
     Davidson diagonalization with overlap
     ethr =  1.76E-05,  avg # of iterations =  2.0

     negative rho (up, down):  1.179E-04 0.000E+00

     add environment contribution to local potential
     Polarization accuracy = 4.7E-12, # of iterations =  45

     total cpu time spent up to now is    11129.2 secs

     total energy              =   -3435.11874894 Ry
     estimated scf accuracy    <       0.07502072 Ry
     electrostatic embedding   =      -0.05161947 Ry
     cavitation energy         =       0.02095900 Ry
     PV energy                 =      -0.08030271 Ry
     correction to one-el term =     190.39244853 Ry

     iteration #  3     ecut=    50.00 Ry     beta= 0.70
     Davidson diagonalization with overlap
     ethr =  1.76E-05,  avg # of iterations =  1.0

     negative rho (up, down):  1.142E-04 0.000E+00

     add environment contribution to local potential
     Polarization accuracy = 4.3E-12, # of iterations =  45

     total cpu time spent up to now is    11397.4 secs

     total energy              =   -3435.12172059 Ry
     estimated scf accuracy    <       0.00977069 Ry
     electrostatic embedding   =      -0.05173781 Ry
     cavitation energy         =       0.02094770 Ry
     PV energy                 =      -0.08032641 Ry
     correction to one-el term =     190.27547421 Ry

     iteration #  4     ecut=    50.00 Ry     beta= 0.70
     Davidson diagonalization with overlap
     ethr =  2.67E-06,  avg # of iterations =  2.0

     negative rho (up, down):  9.608E-05 0.000E+00

     add environment contribution to local potential
     Polarization accuracy = 6.9E-12, # of iterations =  45

     total cpu time spent up to now is    11729.5 secs

     total energy              =   -3435.12215211 Ry
     estimated scf accuracy    <       0.00282232 Ry
     electrostatic embedding   =      -0.05231325 Ry
     cavitation energy         =       0.02094757 Ry
     PV energy                 =      -0.08032834 Ry
     correction to one-el term =     190.19242616 Ry

     iteration #  5     ecut=    50.00 Ry     beta= 0.70
     Davidson diagonalization with overlap
     ethr =  7.71E-07,  avg # of iterations =  1.5

     negative rho (up, down):  7.945E-05 0.000E+00

     add environment contribution to local potential
     Polarization accuracy = 4.5E-12, # of iterations =  45

     total cpu time spent up to now is    12043.1 secs

     total energy              =   -3435.12235507 Ry
     estimated scf accuracy    <       0.00134983 Ry
     electrostatic embedding   =      -0.05271319 Ry
     cavitation energy         =       0.02094653 Ry
     PV energy                 =      -0.08033070 Ry
     correction to one-el term =     190.10236746 Ry

     iteration #  6     ecut=    50.00 Ry     beta= 0.70
     Davidson diagonalization with overlap
     ethr =  3.69E-07,  avg # of iterations =  1.0

     negative rho (up, down):  6.434E-05 0.000E+00

     add environment contribution to local potential
     Polarization accuracy = 5.8E-12, # of iterations =  45

     total cpu time spent up to now is    12291.7 secs

     total energy              =   -3435.12242704 Ry
     estimated scf accuracy    <       0.00007618 Ry
     electrostatic embedding   =      -0.05301370 Ry
     cavitation energy         =       0.02094658 Ry
     PV energy                 =      -0.08033036 Ry
     correction to one-el term =     190.02717216 Ry

     iteration #  7     ecut=    50.00 Ry     beta= 0.70
     Davidson diagonalization with overlap
     ethr =  2.08E-08,  avg # of iterations =  3.0

     negative rho (up, down):  5.359E-05 0.000E+00

     add environment contribution to local potential
     Polarization accuracy = 4.6E-12, # of iterations =  45

     total cpu time spent up to now is    12566.5 secs

     total energy              =   -3435.12243932 Ry
     estimated scf accuracy    <       0.00004688 Ry
     electrostatic embedding   =      -0.05326810 Ry
     cavitation energy         =       0.02094803 Ry
     PV energy                 =      -0.08032771 Ry
     correction to one-el term =     189.95605066 Ry

     iteration #  8     ecut=    50.00 Ry     beta= 0.70
     Davidson diagonalization with overlap
     ethr =  1.28E-08,  avg # of iterations =  2.0

     negative rho (up, down):  4.964E-05 0.000E+00

     add environment contribution to local potential
     Polarization accuracy = 6.5E-12, # of iterations =  45

     total cpu time spent up to now is    12810.3 secs

     total energy              =   -3435.12244472 Ry
     estimated scf accuracy    <       0.00002568 Ry
     electrostatic embedding   =      -0.05352612 Ry
     cavitation energy         =       0.02095063 Ry
     PV energy                 =      -0.08032317 Ry
     correction to one-el term =     189.88531180 Ry

     iteration #  9     ecut=    50.00 Ry     beta= 0.70
     Davidson diagonalization with overlap
     ethr =  7.02E-09,  avg # of iterations =  2.0

     negative rho (up, down):  5.041E-05 0.000E+00

     add environment contribution to local potential
     Polarization accuracy = 4.6E-12, # of iterations =  45

     total cpu time spent up to now is    13014.0 secs

     total energy              =   -3435.12244853 Ry
     estimated scf accuracy    <       0.00000707 Ry
     electrostatic embedding   =      -0.05372662 Ry
     cavitation energy         =       0.02095319 Ry
     PV energy                 =      -0.08031843 Ry
     correction to one-el term =     189.83594743 Ry

     iteration # 10     ecut=    50.00 Ry     beta= 0.70
     Davidson diagonalization with overlap
     ethr =  1.93E-09,  avg # of iterations =  2.0

     negative rho (up, down):  5.395E-05 0.000E+00

     add environment contribution to local potential
[...]
     atom    5 type  2   force =    -0.19274731    1.07209996  171.03598881
     atom    6 type  2   force =     0.40851985    1.20342430  171.47529398
     atom    7 type  1   force =    -0.74560451   -0.04665503   60.26902954
     atom    8 type  1   force =     0.50243117    0.01791299   62.04832381
     atom    9 type  2   force =     0.74132227   -1.86245669  170.54310138
     atom   10 type  2   force =    -0.61207560   -1.19451456  175.22845586
     atom   11 type  1   force =    -0.60365896   -0.24912200   66.26137119
     atom   12 type  1   force =     0.33957516   -0.40197370   66.94298227
     atom   13 type  1   force =     0.01362765    0.39443663   38.56038890
     atom   14 type  1   force =    -0.12286282    0.47165719   38.55515355
     atom   15 type  1   force =    -0.06393324   -0.24784965   25.35331703
     atom   16 type  1   force =    -0.31473493   -0.28160600   27.25411651
     atom   17 type  2   force =     0.55882474   -0.53677090   -0.00585606
     atom   18 type  2   force =     0.33041232   -0.72393690   -0.00585227
     atom   19 type  1   force =    -0.14186766   -0.83669979   -0.00245900
     atom   20 type  1   force =     0.14094948   -0.85224391   -0.00246410
     atom   21 type  2   force =    -1.57570142    0.08395248   -0.00604554
     atom   22 type  2   force =     1.57089475    0.14687868   -0.00605570
     atom   23 type  1   force =    -0.15145210    0.87705377   -0.00246257
     atom   24 type  1   force =     0.17222972    0.86837063   -0.00246477
     atom   25 type  1   force =    -0.06392857   -0.24785956  -25.35508958
     atom   26 type  1   force =    -0.31472642   -0.28162099  -27.25590302
     atom   27 type  1   force =     0.01362488    0.39443456  -38.56217896
     atom   28 type  1   force =    -0.12286141    0.47164968  -38.55692604
     atom   29 type  2   force =    -0.19273978    1.07208974 -171.04207653
     atom   30 type  2   force =     0.40850984    1.20342166 -171.48137870
     atom   31 type  1   force =    -0.74558947   -0.04663306  -60.27147458
     atom   32 type  1   force =     0.50241453    0.01793485  -62.05078882
     atom   33 type  2   force =     0.74132933   -1.86251729 -170.54898452
     atom   34 type  2   force =    -0.61210426   -1.19451688 -175.23420514
     atom   35 type  1   force =    -0.60362623   -0.24915263  -66.26383949
     atom   36 type  1   force =     0.33954409   -0.40200005  -66.94545841
     atom   37 type  1   force =     0.13148936    2.20028037  -92.77295237
     atom   38 type  1   force =    -0.14965422    0.13159312  -91.98558813
     atom   39 type  1   force =     1.46679541   -0.11805947  -95.58973689
     atom   40 type  1   force =    -0.06260834   -0.05422038 -100.12508443
     atom   41 type  3   force =    -2.66758174   -0.77300676   16.49183149
     atom   42 type  3   force =    -2.66758174   -0.77300676  -16.49183149
     atom   43 type  3   force =     0.05763757   -1.56535557   16.90357109
     atom   44 type  3   force =     0.05763757   -1.56535557  -16.90357109
     atom   45 type  3   force =    -0.01316439    0.40646357   18.42041089
     atom   46 type  3   force =    -0.01316439    0.40646357  -18.42041089
     The core correction contribution to forces
     atom    1 type  1   force =    -0.01705255   -0.00361551   -0.00355373
     atom    2 type  1   force =    -0.00014325   -0.00025040   -0.01039275
     atom    3 type  1   force =    -0.00001860   -0.01330878   -0.00229058
     atom    4 type  1   force =     0.00017207    0.00260366    0.00918721
     atom    5 type  2   force =     0.00000000    0.00000000    0.00000000
     atom    6 type  2   force =     0.00000000    0.00000000    0.00000000
     atom    7 type  1   force =    -0.00057928   -0.00003895    0.00184649
     atom    8 type  1   force =     0.00114063   -0.00000134    0.00129740
     atom    9 type  2   force =     0.00000000    0.00000000    0.00000000
     atom   10 type  2   force =     0.00000000    0.00000000    0.00000000
     atom   11 type  1   force =    -0.00014179    0.00017004   -0.00042483
     atom   12 type  1   force =     0.00067610    0.00026905   -0.00078162
     atom   13 type  1   force =     0.00012731   -0.00006424    0.00003236
     atom   14 type  1   force =     0.00015210   -0.00070474   -0.00028659
     atom   15 type  1   force =     0.00066177    0.00054133    0.00032238
     atom   16 type  1   force =     0.00043585    0.00010704   -0.00269628
     atom   17 type  2   force =     0.00000000    0.00000000    0.00000000
     atom   18 type  2   force =     0.00000000    0.00000000    0.00000000
     atom   19 type  1   force =    -0.00058627   -0.00053130   -0.00000201
     atom   20 type  1   force =    -0.00016847   -0.00052593   -0.00000204
     atom   21 type  2   force =     0.00000000    0.00000000    0.00000000
     atom   22 type  2   force =     0.00000000    0.00000000    0.00000000
     atom   23 type  1   force =    -0.00046686    0.00058721   -0.00000193
     atom   24 type  1   force =    -0.00031676    0.00052745   -0.00000196
     atom   25 type  1   force =     0.00066170    0.00054151   -0.00032465
     atom   26 type  1   force =     0.00043583    0.00010700    0.00269421
     atom   27 type  1   force =     0.00012730   -0.00006431   -0.00003458
     atom   28 type  1   force =     0.00015211   -0.00070490    0.00028438
     atom   29 type  2   force =     0.00000000    0.00000000    0.00000000
     atom   30 type  2   force =     0.00000000    0.00000000    0.00000000
     atom   31 type  1   force =    -0.00057928   -0.00003893   -0.00184829
     atom   32 type  1   force =     0.00114060   -0.00000125   -0.00129928
     atom   33 type  2   force =     0.00000000    0.00000000    0.00000000
     atom   34 type  2   force =     0.00000000    0.00000000    0.00000000
     atom   35 type  1   force =    -0.00014167    0.00016996    0.00042284
     atom   36 type  1   force =     0.00067601    0.00026892    0.00077967
     atom   37 type  1   force =    -0.00001859   -0.01331067    0.00228690
     atom   38 type  1   force =     0.00017206    0.00260408   -0.00919298
     atom   39 type  1   force =    -0.01705334   -0.00361554    0.00355126
     atom   40 type  1   force =    -0.00014343   -0.00025039    0.01039094
     atom   41 type  3   force =     0.00000000    0.00000000    0.00000000
     atom   42 type  3   force =     0.00000000    0.00000000    0.00000000
     atom   43 type  3   force =     0.00000000    0.00000000    0.00000000
     atom   44 type  3   force =     0.00000000    0.00000000    0.00000000
     atom   45 type  3   force =     0.00000000    0.00000000    0.00000000
     atom   46 type  3   force =     0.00000000    0.00000000    0.00000000
     The Hubbard contrib.    to forces
     atom    1 type  1   force =     0.00000000    0.00000000    0.00000000
     atom    2 type  1   force =     0.00000000    0.00000000    0.00000000
     atom    3 type  1   force =     0.00000000    0.00000000    0.00000000
     atom    4 type  1   force =     0.00000000    0.00000000    0.00000000
     atom    5 type  2   force =     0.00000000    0.00000000    0.00000000
     atom    6 type  2   force =     0.00000000    0.00000000    0.00000000
     atom    7 type  1   force =     0.00000000    0.00000000    0.00000000
     atom    8 type  1   force =     0.00000000    0.00000000    0.00000000
     atom    9 type  2   force =     0.00000000    0.00000000    0.00000000
     atom   10 type  2   force =     0.00000000    0.00000000    0.00000000
     atom   11 type  1   force =     0.00000000    0.00000000    0.00000000
     atom   12 type  1   force =     0.00000000    0.00000000    0.00000000
     atom   13 type  1   force =     0.00000000    0.00000000    0.00000000
     atom   14 type  1   force =     0.00000000    0.00000000    0.00000000
     atom   15 type  1   force =     0.00000000    0.00000000    0.00000000
     atom   16 type  1   force =     0.00000000    0.00000000    0.00000000
     atom   17 type  2   force =     0.00000000    0.00000000    0.00000000
     atom   18 type  2   force =     0.00000000    0.00000000    0.00000000
     atom   19 type  1   force =     0.00000000    0.00000000    0.00000000
     atom   20 type  1   force =     0.00000000    0.00000000    0.00000000
     atom   21 type  2   force =     0.00000000    0.00000000    0.00000000
     atom   22 type  2   force =     0.00000000    0.00000000    0.00000000
     atom   23 type  1   force =     0.00000000    0.00000000    0.00000000
     atom   24 type  1   force =     0.00000000    0.00000000    0.00000000
     atom   25 type  1   force =     0.00000000    0.00000000    0.00000000
     atom   26 type  1   force =     0.00000000    0.00000000    0.00000000
     atom   27 type  1   force =     0.00000000    0.00000000    0.00000000
     atom   28 type  1   force =     0.00000000    0.00000000    0.00000000
     atom   29 type  2   force =     0.00000000    0.00000000    0.00000000
     atom   30 type  2   force =     0.00000000    0.00000000    0.00000000
     atom   31 type  1   force =     0.00000000    0.00000000    0.00000000
     atom   32 type  1   force =     0.00000000    0.00000000    0.00000000
     atom   33 type  2   force =     0.00000000    0.00000000    0.00000000
     atom   34 type  2   force =     0.00000000    0.00000000    0.00000000
     atom   35 type  1   force =     0.00000000    0.00000000    0.00000000
     atom   36 type  1   force =     0.00000000    0.00000000    0.00000000
     atom   37 type  1   force =     0.00000000    0.00000000    0.00000000
     atom   38 type  1   force =     0.00000000    0.00000000    0.00000000
     atom   39 type  1   force =     0.00000000    0.00000000    0.00000000
     atom   40 type  1   force =     0.00000000    0.00000000    0.00000000
     atom   41 type  3   force =     0.00000000    0.00000000    0.00000000
     atom   42 type  3   force =     0.00000000    0.00000000    0.00000000
     atom   43 type  3   force =     0.00000000    0.00000000    0.00000000
     atom   44 type  3   force =     0.00000000    0.00000000    0.00000000
     atom   45 type  3   force =     0.00000000    0.00000000    0.00000000
     atom   46 type  3   force =     0.00000000    0.00000000    0.00000000
     The SCF correction term to forces
     atom    1 type  1   force =    -0.00000054   -0.00000009   -0.00000024
     atom    2 type  1   force =     0.00000050    0.00000097    0.00000078
     atom    3 type  1   force =    -0.00000058   -0.00000055    0.00000041
     atom    4 type  1   force =     0.00000049   -0.00000163   -0.00000082
     atom    5 type  2   force =     0.00000210   -0.00000094   -0.00000030
     atom    6 type  2   force =    -0.00000206   -0.00000087   -0.00000066
     atom    7 type  1   force =     0.00000156   -0.00000080    0.00000080
     atom    8 type  1   force =    -0.00000153   -0.00000133    0.00000048
     atom    9 type  2   force =    -0.00000070    0.00000082    0.00000272
     atom   10 type  2   force =     0.00000060    0.00000115    0.00000022
     atom   11 type  1   force =     0.00000172    0.00000117    0.00000027
     atom   12 type  1   force =    -0.00000173    0.00000161    0.00000017
     atom   13 type  1   force =    -0.00000044   -0.00000017    0.00000028
     atom   14 type  1   force =     0.00000042    0.00000002   -0.00000104
     atom   15 type  1   force =     0.00000005    0.00000006    0.00000148
     atom   16 type  1   force =     0.00000003   -0.00000022   -0.00000001
     atom   17 type  2   force =    -0.00000017   -0.00000016   -0.00000000
     atom   18 type  2   force =     0.00000017    0.00000029    0.00000000
     atom   19 type  1   force =    -0.00000034    0.00000042    0.00000000
     atom   20 type  1   force =     0.00000039    0.00000027    0.00000000
     atom   21 type  2   force =    -0.00000002   -0.00000044    0.00000000
     atom   22 type  2   force =    -0.00000016   -0.00000030    0.00000000
     atom   23 type  1   force =    -0.00000055   -0.00000024    0.00000000
     atom   24 type  1   force =     0.00000053   -0.00000013    0.00000000
     atom   25 type  1   force =     0.00000005    0.00000006   -0.00000148
     atom   26 type  1   force =     0.00000003   -0.00000022    0.00000001
     atom   27 type  1   force =    -0.00000044   -0.00000017   -0.00000028
     atom   28 type  1   force =     0.00000042    0.00000002    0.00000104
     atom   29 type  2   force =     0.00000210   -0.00000094    0.00000029
     atom   30 type  2   force =    -0.00000206   -0.00000087    0.00000066
     atom   31 type  1   force =     0.00000156   -0.00000080   -0.00000080
     atom   32 type  1   force =    -0.00000153   -0.00000132   -0.00000048
     atom   33 type  2   force =    -0.00000071    0.00000082   -0.00000272
     atom   34 type  2   force =     0.00000060    0.00000115   -0.00000023
     atom   35 type  1   force =     0.00000172    0.00000117   -0.00000027
     atom   36 type  1   force =    -0.00000173    0.00000161   -0.00000017
     atom   37 type  1   force =    -0.00000058   -0.00000055   -0.00000041
     atom   38 type  1   force =     0.00000049   -0.00000163    0.00000082
     atom   39 type  1   force =    -0.00000054   -0.00000009    0.00000024
     atom   40 type  1   force =     0.00000050    0.00000097   -0.00000078
     atom   41 type  3   force =     0.00000021    0.00000007   -0.00000007
     atom   42 type  3   force =     0.00000021    0.00000007    0.00000007
     atom   43 type  3   force =    -0.00000007   -0.00000025    0.00000005
     atom   44 type  3   force =    -0.00000007   -0.00000025   -0.00000005
     atom   45 type  3   force =     0.00000005   -0.00000010    0.00000022
     atom   46 type  3   force =     0.00000005   -0.00000010   -0.00000022

     Total force =     0.000397     Total SCF correction =     0.000010
     Energy error            =      2.6E-07 Ry
     Gradient error          =      9.3E-05 Ry/Bohr

     bfgs converged in  60 scf cycles and  59 bfgs steps
     (criteria: energy <  1.0E-04 Ry, force <  1.0E-04 Ry/Bohr)

     End of BFGS Geometry Optimization

     Final energy             =   -3435.1483264239 Ry

     File /storage/home/mgm6007/ixd4/Maria/StrainJin_Files/RuO2-110-0-023/RuO2-110-0-023.bfgs deleted, as requested
Begin final coordinates

ATOMIC_POSITIONS (crystal)
O             0.0043715667        0.4480256509        0.2689942688
O             0.4863332629        0.4968571866        0.2725861263
O            -0.0009727752        0.0152807530        0.3011987227
O             0.4981225087        0.0080093981        0.3046267621
Ru            0.2483727528        0.0048061547        0.3588381617
Ru            0.7489319926        0.0045946981        0.3585773554
O             0.2501529495        0.3165325425        0.3624396778
O             0.7506319109        0.3168085814        0.3600430972
Ru            0.0007608068        0.5039179109        0.3576855747
Ru            0.5018249203        0.5038345982        0.3507506067
O             0.2430235572        0.6948018464        0.3544551502
O             0.7567077653        0.6928907674        0.3537957308
O            -0.0025872079        0.0044466332        0.4110405938
O             0.4989920426        0.0009233467        0.4117522864
O             0.0034196050        0.5142501422        0.4462451343
O             0.5023197207        0.5156600998        0.4427031023
Ru           -0.0037010364        0.0124296774        0.5000010000
Ru            0.4963849676        0.0132827910        0.5000010000
O             0.2444204104        0.1997904186        0.5000010000
O             0.7440399709        0.1999912156        0.5000010000
Ru            0.2582424742        0.5136924446        0.5000010000
Ru            0.7538152916        0.5135344206        0.5000010000
O             0.2445035996        0.8272050278        0.5000010000
O             0.7444700693        0.8268457260        0.5000010000
O             0.0034196050        0.5142501422        0.5537558657
O             0.5023197207        0.5156600998        0.5572978977
O            -0.0025872079        0.0044466332        0.5889604062
O             0.4989920426        0.0009233467        0.5882487136
Ru            0.2483727528        0.0048061547        0.6411628383
Ru            0.7489319926        0.0045946981        0.6414236446
O             0.2501529495        0.3165325425        0.6375613222
O             0.7506319109        0.3168085814        0.6399579028
Ru            0.0007608068        0.5039179109        0.6423154253
Ru            0.5018249203        0.5038345982        0.6492503933
O             0.2430235572        0.6948018464        0.6455458498
O             0.7567077653        0.6928907674        0.6462052692
O            -0.0009727752        0.0152807530        0.6988032773
O             0.4981225087        0.0080093981        0.6953752379
O             0.0043715667        0.4480256509        0.7310067312
O             0.4863332629        0.4968571866        0.7274148737
H             0.1396236851        0.4833429714        0.2527044114
H             0.1396236851        0.4833429714        0.7472955886
H            -0.0007923768        0.1620003369        0.2785359222
H            -0.0007923768        0.1620003369        0.7214640778
H             0.4973104394       -0.0119364794        0.2608568018
H             0.4973104394       -0.0119364794        0.7391431982
End final coordinates



     Writing all to output data dir /storage/home/mgm6007/ixd4/Maria/StrainJin_Files/RuO2-110-0-023/RuO2-110-0-023.save/
 
     init_run     :    394.78s CPU    974.35s WALL (       1 calls)
     electrons    :  71781.74s CPU 169205.53s WALL (      60 calls)
     update_pot   :     99.77s CPU     99.84s WALL (      59 calls)
     forces       :    104.58s CPU    105.26s WALL (      60 calls)

     Called by init_run:
     wfcinit      :      0.96s CPU      0.98s WALL (       1 calls)
     potinit      :    219.02s CPU    646.40s WALL (       1 calls)
     hinit0       :    174.36s CPU    326.46s WALL (       1 calls)

     Called by electrons:
     c_bands      :   2756.40s CPU   2759.05s WALL (    1112 calls)
     sum_band     :    477.79s CPU    478.31s WALL (    1112 calls)
     v_of_rho     :    108.67s CPU    109.03s WALL (    1121 calls)
     newd         :     78.30s CPU     78.38s WALL (    1121 calls)
     PAW_pot      :    135.95s CPU    136.04s WALL (    1180 calls)
     mix_rho      :    805.87s CPU    806.78s WALL (    1112 calls)

     Called by c_bands:
     init_us_2    :     30.81s CPU     30.84s WALL (    4688 calls)
     init_us_2:cp :     30.77s CPU     30.82s WALL (    4688 calls)
     cegterg      :   2641.27s CPU   2643.61s WALL (    2224 calls)

     Called by *egterg:
     cdiaghg      :    323.69s CPU    324.00s WALL (    6668 calls)
     h_psi        :   1338.73s CPU   1340.18s WALL (    6890 calls)
     s_psi        :    205.56s CPU    205.68s WALL (    6890 calls)
     g_psi        :      6.46s CPU      6.47s WALL (    4664 calls)

     Called by h_psi:
     h_psi:calbec :    205.52s CPU    205.76s WALL (    6890 calls)
     vloc_psi     :    912.97s CPU    913.99s WALL (    6890 calls)
     add_vuspsi   :    204.17s CPU    204.34s WALL (    6890 calls)

     General routines
     calbec       :    323.45s CPU    323.77s WALL (    9712 calls)
     fft          :  16260.08s CPU  16262.47s WALL (   15223 calls)
     ffts         :    300.59s CPU    300.82s WALL (  472290 calls)
     fftw         :    845.34s CPU    846.23s WALL ( 2597484 calls)
     interpolate  :  16175.89s CPU  16178.29s WALL (    1121 calls)
 
     Parallel routines
 
     Environ routines
 
     PWSCF        :     21h12m CPU   2d 1h37m WALL

 
   This run was terminated on:  12:54:49  28Jul2023            

=------------------------------------------------------------------------------=
   JOB DONE.
=------------------------------------------------------------------------------=
