
     Program PWSCF v.7.2 starts on 19Jul2023 at 21:58:46 
        Git branch: heads/qe-7.2
        Last git commit: b4c5e8deeb7d1863e7553a87b45f8d22c21926a5
        Last git commit date: Mon Mar 27 16:12:09 2023 +0000
        Last git commit subject: Merge branch 'merge_fix_hubbard' into 'develop'

     This program is part of the open-source Quantum ESPRESSO suite
     for quantum simulation of materials; please cite
         "P. Giannozzi et al., J. Phys.:Condens. Matter 21 395502 (2009);
         "P. Giannozzi et al., J. Phys.:Condens. Matter 29 465901 (2017);
         "P. Giannozzi et al., J. Chem. Phys. 152 154105 (2020);
          URL http://www.quantum-espresso.org", 
     in publications or presentations arising from this work. More details at
     http://www.quantum-espresso.org/quote

     Parallel version (MPI), running on    20 processors

     MPI processes distributed on     1 nodes
     90159 MiB available memory on the printing compute node when the environment starts
 
     Reading input from RuO2-110-0-0123.in

     Current dimensions of program PWSCF are:
     Max number of different atomic species (ntypx) = 10
     Max number of k-points (npk) =  40000
     Max angular momentum in pseudopotentials (lmaxx) =  4
 
     Reading input from environ.in:
     * Environ restarting
     * setting up water environment
     * using electronic solvent mode
     * setting boundary derivatives method to SCCS default
     
     file O.pbe-n-kjpaw_psl.0.1.UPF: wavefunction(s)  2P renormalized
     Message from routine setup:
     using ibrav=0 with symmetry is DISCOURAGED, use correct ibrav instead
 
     R & G space division:  proc/nbgrp/npool/nimage =      20
     Subspace diagonalization in iterative solution of the eigenvalue problem:
     one sub-group per band group will be used
     scalapack distributed-memory algorithm (size of sub-group:  2*  2 procs)

 
     Parallelization info
     --------------------
     sticks:   dense  smooth     PW     G-vecs:    dense   smooth      PW
     Min         282     113     29                56190    14217    1913
     Max         283     114     30                56201    14227    1932
     Sum        5657    2263    593              1123933   284439   38425
 
     Using Slab Decomposition
 


     bravais-lattice index     =            0
     lattice parameter (alat)  =      12.1041  a.u.
     unit-cell volume          =    5954.5483 (a.u.)^3
     number of atoms/cell      =           48
     number of atomic types    =            3
     number of electrons       =       368.00
     number of Kohn-Sham states=          221
     kinetic-energy cutoff     =      50.0000  Ry
     charge density cutoff     =     500.0000  Ry
     scf convergence threshold =      1.0E-09
     mixing beta               =       0.7000
     number of iterations used =            8  local-TF  mixing
     energy convergence thresh.=      1.0E-04
     force convergence thresh. =      1.0E-04
     Exchange-correlation= PBE
                           (   1   4   3   4   0   0   0)
     nstep                     =          200


     ================================================================================
 
                                  Environ Setup Summary

     ================================================================================
 
     Please cite

          O. Andreussi, I. Dabo and N. Marzari, J. Chem. Phys. 136, 064102 (2012)

     in publications or presentations arising from this work.

     ================================================================================
 
     Parameters
     ==========

     compensation onset threshold      =               0.1000E+00
     static permittivity               =                    78.30
     surface tension in input (dyn/cm) =                    47.90
     surface tension in internal units =               0.6153E-04
     external pressure in input (GPa)  =                    -0.36
     external pressure in inter. units =              -0.2447E-04

     Solvent Boundary
     ================

     solvent mode                      =               electronic
     derivatives method                =                    chain
     numerical core for derivatives    =                      fft
     switching function adopted        =                     SCCS
     density limit for vacuum region   =               0.5000E-02
     density limit for bulk solvent    =               0.1000E-03

     Electrostatic Setup
     ===================

     electrostatic problem to solve    =              generalized
     numerical solver adopted          =                       cg
     type of auxiliary density adopted =                     none
     numerical core for poisson        =                      fft
     type of pbc corrections           =                parabolic
     numerical core for corrections    =                      1da

     ================================================================================
 

     celldm(1)=  12.104053  celldm(2)=   0.000000  celldm(3)=   0.000000
     celldm(4)=   0.000000  celldm(5)=   0.000000  celldm(6)=   0.000000

     crystal axes: (cart. coord. in units of alat)
               a(1) = (   1.000000   0.000000   0.000000 )  
               a(2) = (   0.000000   0.971735   0.000000 )  
               a(3) = (   0.000000   0.000000   3.455479 )  

     reciprocal axes: (cart. coord. in units 2 pi/alat)
               b(1) = (  1.000000  0.000000  0.000000 )  
               b(2) = (  0.000000  1.029087  0.000000 )  
               b(3) = (  0.000000  0.000000  0.289395 )  


     PseudoPot. # 1 for O  read from file:
     /gpfs/group/ixd4/default/Simon/pseudopotentials/materialscloud/SSSP_1.3.0_PBE_efficiency/O.pbe-n-kjpaw_psl.0.1.UPF
     MD5 check sum: 0234752ac141de4415c5fc33072bef88
     Pseudo is Projector augmented-wave + core cor, Zval =  6.0
     Generated using "atomic" code by A. Dal Corso  v.5.0.99 svn rev. 10869
     Shape of augmentation charge: BESSEL
     Using radial grid of 1095 points,  4 beta functions with: 
                l(1) =   0
                l(2) =   0
                l(3) =   1
                l(4) =   1
     Q(r) pseudized with 0 coefficients 


     PseudoPot. # 2 for Ru read from file:
     /gpfs/group/ixd4/default/Simon/pseudopotentials/materialscloud/SSSP_1.3.0_PBE_efficiency/Ru_ONCV_PBE-1.0.oncvpsp.upf
     MD5 check sum: be037bb81c227cfb9b1461a9f099f4bd
     Pseudo is Norm-conserving, Zval = 16.0
     Generated using ONCVPSP code by D. R. Hamann
     Using radial grid of 1458 points,  6 beta functions with: 
                l(1) =   0
                l(2) =   0
                l(3) =   1
                l(4) =   1
                l(5) =   2
                l(6) =   2

     PseudoPot. # 3 for H  read from file:
     /gpfs/group/ixd4/default/Simon/pseudopotentials/materialscloud/SSSP_1.3.0_PBE_efficiency/H.pbe-rrkjus_psl.1.0.0.UPF
     MD5 check sum: f52b6d4d1c606e5624b1dc7b2218f220
     Pseudo is Ultrasoft, Zval =  1.0
     Generated using "atomic" code by A. Dal Corso  v.5.1
     Using radial grid of  929 points,  2 beta functions with: 
                l(1) =   0
                l(2) =   0
     Q(r) pseudized with 0 coefficients 


     atomic species   valence    mass     pseudopotential
        O              6.00    15.99940     O ( 1.00)
        Ru            16.00   101.07000     Ru( 1.00)
        H              1.00     1.00794     H ( 1.00)

      2 Sym. Ops. (no inversion) found



   Cartesian axes

     site n.     atom                  positions (alat units)
         1           O   tau(   1) = (   0.0019623   0.4669282   0.9255139  )
         2           O   tau(   2) = (   0.4875057   0.4477815   0.9332357  )
         3           O   tau(   3) = (  -0.0024060   0.0096495   1.0406745  )
         4           O   tau(   4) = (   0.4986248   0.0186415   1.0370439  )
         5           Ru  tau(   5) = (   0.2484595   0.0027488   1.2382481  )
         6           Ru  tau(   6) = (   0.7480150   0.0026708   1.2387006  )
         7           O   tau(   7) = (   0.2477783   0.2956235   1.2405804  )
         8           O   tau(   8) = (   0.7499621   0.2993466   1.2388077  )
         9           Ru  tau(   9) = (   0.0003048   0.4869769   1.2273279  )
        10           Ru  tau(  10) = (   0.4960769   0.4871149   1.2381304  )
        11           O   tau(  11) = (   0.2508506   0.6794340   1.2261873  )
        12           O   tau(  12) = (   0.7453879   0.6755203   1.2233453  )
        13           O   tau(  13) = (  -0.0013353  -0.0031641   1.4221845  )
        14           O   tau(  14) = (   0.4980900  -0.0011327   1.4211247  )
        15           O   tau(  15) = (  -0.0004275   0.4911786   1.5264265  )
        16           O   tau(  16) = (   0.5005818   0.4888413   1.5408694  )
        17           Ru  tau(  17) = (   0.0018515   0.0010864   1.7277432  )
        18           Ru  tau(  18) = (   0.4969439   0.0011525   1.7277432  )
        19           O   tau(  19) = (   0.2473667   0.1923850   1.7277432  )
        20           O   tau(  20) = (   0.7505232   0.1873028   1.7277432  )
        21           Ru  tau(  21) = (   0.2443070   0.4872729   1.7277432  )
        22           Ru  tau(  22) = (   0.7550701   0.4874719   1.7277432  )
        23           O   tau(  23) = (   0.2485101   0.7822403   1.7277432  )
        24           O   tau(  24) = (   0.7497567   0.7878471   1.7277432  )
        25           O   tau(  25) = (  -0.0004275   0.4911786   1.9290565  )
        26           O   tau(  26) = (   0.5005818   0.4888413   1.9146135  )
        27           O   tau(  27) = (  -0.0013353  -0.0031641   2.0332985  )
        28           O   tau(  28) = (   0.4980900  -0.0011327   2.0343583  )
        29           Ru  tau(  29) = (   0.2484595   0.0027488   2.2172349  )
        30           Ru  tau(  30) = (   0.7480150   0.0026708   2.2167823  )
        31           O   tau(  31) = (   0.2477783   0.2956235   2.2149025  )
        32           O   tau(  32) = (   0.7499621   0.2993466   2.2166753  )
        33           Ru  tau(  33) = (   0.0003048   0.4869769   2.2281551  )
        34           Ru  tau(  34) = (   0.4960769   0.4871149   2.2173525  )
        35           O   tau(  35) = (   0.2508506   0.6794340   2.2292957  )
        36           O   tau(  36) = (   0.7453879   0.6755203   2.2321376  )
        37           O   tau(  37) = (  -0.0024060   0.0096495   2.4148120  )
        38           O   tau(  38) = (   0.4986248   0.0186415   2.4184425  )
        39           O   tau(  39) = (   0.0019623   0.4669282   2.5299690  )
        40           O   tau(  40) = (   0.4875057   0.4477815   2.5222472  )
        41           H   tau(  41) = (   0.1476437   0.4702909   0.8752636  )
        42           H   tau(  42) = (   0.1476437   0.4702909   2.5802159  )
        43           H   tau(  43) = (   0.6263337   0.4709091   0.8726329  )
        44           H   tau(  44) = (   0.6263337   0.4709091   2.5828466  )
        45           H   tau(  45) = (  -0.0038173   0.1126749   0.9327254  )
        46           H   tau(  46) = (  -0.0038173   0.1126749   2.5227541  )
        47           H   tau(  47) = (   0.4985143   0.1445777   0.9582467  )
        48           H   tau(  48) = (   0.4985143   0.1445777   2.4972328  )

     number of k points=     2  Marzari-Vanderbilt smearing, width (Ry)=  0.0300
                       cart. coord. in units 2pi/alat
        k(    1) = (   0.2500000   0.2572717   0.0000000), wk =   1.0000000
        k(    2) = (  -0.2500000   0.2572717   0.0000000), wk =   1.0000000

     Dense  grid:  1123933 G-vectors     FFT dimensions: (  90,  90, 300)

     Smooth grid:   284439 G-vectors     FFT dimensions: (  60,  54, 192)

     Estimated max dynamical RAM per process >     185.04 MB

     Estimated total dynamical RAM >       3.61 GB

     Check: negative core charge=   -0.000001

     Initial potential from superposition of free atoms

     starting charge     367.9933, renormalised to     368.0000

     add environment contribution to local potential
     Polarization accuracy = 9.8E-12, # of iterations =  24

     negative rho (up, down):  2.852E-05 0.000E+00
     Starting wfcs are  240 randomized atomic wfcs
     Checking if some PAW data can be deallocated... 

     total cpu time spent up to now is      999.4 secs

     per-process dynamical memory:   157.7 Mb

     Self-consistent Calculation

     iteration #  1     ecut=    50.00 Ry     beta= 0.70
     Davidson diagonalization with overlap
     ethr =  1.00E-02,  avg # of iterations =  2.0

     negative rho (up, down):  2.603E-08 0.000E+00

     total cpu time spent up to now is     1306.8 secs

     total energy              =   -3435.65910799 Ry
     estimated scf accuracy    <       8.86869253 Ry
     electrostatic embedding   =      -0.00186424 Ry
     cavitation energy         =       0.01983295 Ry
     PV energy                 =      -0.08692139 Ry
     correction to one-el term =     218.65547382 Ry

     iteration #  2     ecut=    50.00 Ry     beta= 0.70
     Davidson diagonalization with overlap
     ethr =  2.41E-03,  avg # of iterations =  2.0

     total cpu time spent up to now is     1658.3 secs

     total energy              =   -3437.70199383 Ry
     estimated scf accuracy    <       1.35273898 Ry
     electrostatic embedding   =      -0.00285311 Ry
     cavitation energy         =       0.01967136 Ry
     PV energy                 =      -0.08773215 Ry
     correction to one-el term =     218.65867081 Ry

     iteration #  3     ecut=    50.00 Ry     beta= 0.70
     Davidson diagonalization with overlap
     ethr =  3.68E-04,  avg # of iterations =  5.0

     total cpu time spent up to now is     1961.1 secs

     total energy              =   -3437.83482657 Ry
     estimated scf accuracy    <       0.24294472 Ry
     electrostatic embedding   =      -0.00316352 Ry
     cavitation energy         =       0.01978242 Ry
     PV energy                 =      -0.08754546 Ry
     correction to one-el term =     218.65933741 Ry

     iteration #  4     ecut=    50.00 Ry     beta= 0.70
     Davidson diagonalization with overlap
     ethr =  6.60E-05,  avg # of iterations =  1.5

     total cpu time spent up to now is     2280.7 secs

     total energy              =   -3437.82411564 Ry
     estimated scf accuracy    <       0.28767084 Ry
     electrostatic embedding   =      -0.00330627 Ry
     cavitation energy         =       0.02000228 Ry
     PV energy                 =      -0.08686754 Ry
     correction to one-el term =     218.65935899 Ry

     iteration #  5     ecut=    50.00 Ry     beta= 0.70
     Davidson diagonalization with overlap
     ethr =  6.60E-05,  avg # of iterations =  2.0

     total cpu time spent up to now is     2608.3 secs

     total energy              =   -3437.83504785 Ry
     estimated scf accuracy    <       0.14709589 Ry
     electrostatic embedding   =      -0.00335660 Ry
     cavitation energy         =       0.02039799 Ry
     PV energy                 =      -0.08591913 Ry
     correction to one-el term =     218.65906631 Ry

     iteration #  6     ecut=    50.00 Ry     beta= 0.70
     Davidson diagonalization with overlap
     ethr =  4.00E-05,  avg # of iterations =  2.0

     add environment contribution to local potential
     Polarization accuracy = 7.0E-12, # of iterations =  35

     total cpu time spent up to now is     2863.6 secs

     total energy              =   -3437.83030628 Ry
     estimated scf accuracy    <       0.07926587 Ry
     electrostatic embedding   =      -0.00330412 Ry
     cavitation energy         =       0.02074468 Ry
     PV energy                 =      -0.08507387 Ry
     correction to one-el term =     218.65857472 Ry

     iteration #  7     ecut=    50.00 Ry     beta= 0.70
     Davidson diagonalization with overlap
     ethr =  2.15E-05,  avg # of iterations =  8.0

     add environment contribution to local potential
     Polarization accuracy = 5.4E-12, # of iterations =  40

     total cpu time spent up to now is     3191.4 secs

     total energy              =   -3437.84505728 Ry
     estimated scf accuracy    <       0.08381153 Ry
     electrostatic embedding   =      -0.03272101 Ry
     cavitation energy         =       0.02108022 Ry
     PV energy                 =      -0.08421311 Ry
     correction to one-el term =     186.11742690 Ry

     iteration #  8     ecut=    50.00 Ry     beta= 0.70
     Davidson diagonalization with overlap
     ethr =  2.15E-05,  avg # of iterations =  5.0

     add environment contribution to local potential
     Polarization accuracy = 4.2E-12, # of iterations =  46

     total cpu time spent up to now is     3518.2 secs

     total energy              =   -3437.84395607 Ry
     estimated scf accuracy    <       0.04911813 Ry
     electrostatic embedding   =      -0.03747033 Ry
     cavitation energy         =       0.02155617 Ry
     PV energy                 =      -0.08313804 Ry
     correction to one-el term =     182.82575633 Ry

     iteration #  9     ecut=    50.00 Ry     beta= 0.70
     Davidson diagonalization with overlap
     ethr =  1.33E-05,  avg # of iterations =  3.0

     negative rho (up, down):  3.449E-04 0.000E+00

     add environment contribution to local potential
     Polarization accuracy = 3.7E-12, # of iterations =  50

     total cpu time spent up to now is     3795.4 secs

     total energy              =   -3437.84190888 Ry
     estimated scf accuracy    <       0.02412106 Ry
     electrostatic embedding   =      -0.04060899 Ry
     cavitation energy         =       0.02182880 Ry
     PV energy                 =      -0.08257577 Ry
     correction to one-el term =     181.10654486 Ry

     iteration # 10     ecut=    50.00 Ry     beta= 0.70
     Davidson diagonalization with overlap
     ethr =  6.55E-06,  avg # of iterations =  7.5

     negative rho (up, down):  6.080E-04 0.000E+00

     add environment contribution to local potential
     Polarization accuracy = 9.8E-12, # of iterations =  47

     total cpu time spent up to now is     4092.3 secs

     total energy              =   -3437.84415693 Ry
     estimated scf accuracy    <       0.00953356 Ry
     electrostatic embedding   =      -0.04340864 Ry
     cavitation energy         =       0.02191918 Ry
     PV energy                 =      -0.08213932 Ry
     correction to one-el term =     180.35076190 Ry

     iteration # 11     ecut=    50.00 Ry     beta= 0.70
     Davidson diagonalization with overlap
     ethr =  2.59E-06,  avg # of iterations = 12.5

     negative rho (up, down):  1.987E-04 0.000E+00

     add environment contribution to local potential
     Polarization accuracy = 3.5E-12, # of iterations =  48

     total cpu time spent up to now is     4413.0 secs

     total energy              =   -3437.84612792 Ry
     estimated scf accuracy    <       0.00389515 Ry
     electrostatic embedding   =      -0.04029759 Ry
     cavitation energy         =       0.02159155 Ry
     PV energy                 =      -0.08238192 Ry
     correction to one-el term =     182.46020667 Ry

     iteration # 12     ecut=    50.00 Ry     beta= 0.70
     Davidson diagonalization with overlap
     ethr =  1.06E-06,  avg # of iterations =  6.0

     negative rho (up, down):  7.463E-06 0.000E+00

     add environment contribution to local potential
     Polarization accuracy = 8.6E-12, # of iterations =  45

     total cpu time spent up to now is     4766.2 secs

     total energy              =   -3437.84687990 Ry
     estimated scf accuracy    <       0.00291870 Ry
     electrostatic embedding   =      -0.03885250 Ry
     cavitation energy         =       0.02149011 Ry
     PV energy                 =      -0.08250549 Ry
     correction to one-el term =     183.38464158 Ry

     iteration # 13     ecut=    50.00 Ry     beta= 0.70
     Davidson diagonalization with overlap
     ethr =  7.93E-07,  avg # of iterations =  7.0

     negative rho (up, down):  1.026E-05 0.000E+00

     add environment contribution to local potential
     Polarization accuracy = 3.1E-12, # of iterations =  45

     total cpu time spent up to now is     5053.7 secs

     total energy              =   -3437.84782882 Ry
     estimated scf accuracy    <       0.00140693 Ry
     electrostatic embedding   =      -0.03676327 Ry
     cavitation energy         =       0.02135226 Ry
     PV energy                 =      -0.08268871 Ry
     correction to one-el term =     184.85976141 Ry

     iteration # 14     ecut=    50.00 Ry     beta= 0.70
     Davidson diagonalization with overlap
     ethr =  3.82E-07,  avg # of iterations =  6.0

     negative rho (up, down):  1.078E-05 0.000E+00

     add environment contribution to local potential
     Polarization accuracy = 8.6E-12, # of iterations =  44

     total cpu time spent up to now is     5420.3 secs

     total energy              =   -3437.84833613 Ry
     estimated scf accuracy    <       0.00084728 Ry
     electrostatic embedding   =      -0.03510400 Ry
     cavitation energy         =       0.02124945 Ry
     PV energy                 =      -0.08283681 Ry
     correction to one-el term =     185.99941709 Ry

     iteration # 15     ecut=    50.00 Ry     beta= 0.70
     Davidson diagonalization with overlap
     ethr =  2.30E-07,  avg # of iterations =  7.0

     negative rho (up, down):  3.283E-05 0.000E+00

     add environment contribution to local potential
     Polarization accuracy = 7.3E-12, # of iterations =  44

     total cpu time spent up to now is     5780.7 secs

     total energy              =   -3437.84866632 Ry
     estimated scf accuracy    <       0.00025016 Ry
     electrostatic embedding   =      -0.03411705 Ry
     cavitation energy         =       0.02123828 Ry
     PV energy                 =      -0.08288590 Ry
     correction to one-el term =     186.87007767 Ry

     iteration # 16     ecut=    50.00 Ry     beta= 0.70
     Davidson diagonalization with overlap
     ethr =  6.80E-08,  avg # of iterations =  8.0

     negative rho (up, down):  9.207E-04 0.000E+00

     add environment contribution to local potential
     Polarization accuracy = 7.0E-12, # of iterations =  44

     total cpu time spent up to now is     6125.9 secs

     total energy              =   -3437.84876318 Ry
     estimated scf accuracy    <       0.00028479 Ry
     electrostatic embedding   =      -0.03300187 Ry
     cavitation energy         =       0.02124490 Ry
     PV energy                 =      -0.08292412 Ry
     correction to one-el term =     187.50345386 Ry

     iteration # 17     ecut=    50.00 Ry     beta= 0.70
     Davidson diagonalization with overlap
     ethr =  6.80E-08,  avg # of iterations =  1.5

     negative rho (up, down):  7.763E-04 0.000E+00

     add environment contribution to local potential
     Polarization accuracy = 6.9E-12, # of iterations =  44

     total cpu time spent up to now is     6417.8 secs

     total energy              =   -3437.84878926 Ry
     estimated scf accuracy    <       0.00001811 Ry
     electrostatic embedding   =      -0.03274440 Ry
     cavitation energy         =       0.02124563 Ry
     PV energy                 =      -0.08292840 Ry
     correction to one-el term =     187.63751517 Ry

     iteration # 18     ecut=    50.00 Ry     beta= 0.70
     Davidson diagonalization with overlap
     ethr =  4.92E-09,  avg # of iterations =  2.0

     negative rho (up, down):  5.853E-04 0.000E+00

     add environment contribution to local potential
     Polarization accuracy = 6.6E-12, # of iterations =  44

     total cpu time spent up to now is     6769.7 secs

     total energy              =   -3437.84879563 Ry
     estimated scf accuracy    <       0.00001117 Ry
     electrostatic embedding   =      -0.03244804 Ry
     cavitation energy         =       0.02124215 Ry
     PV energy                 =      -0.08292355 Ry
     correction to one-el term =     187.73628949 Ry

     iteration # 19     ecut=    50.00 Ry     beta= 0.70
     Davidson diagonalization with overlap
     ethr =  3.03E-09,  avg # of iterations =  2.0

     negative rho (up, down):  6.105E-04 0.000E+00

     add environment contribution to local potential
     Polarization accuracy = 5.8E-12, # of iterations =  44

     total cpu time spent up to now is     7084.9 secs

     total energy              =   -3437.84879716 Ry
     estimated scf accuracy    <       0.00000685 Ry
     electrostatic embedding   =      -0.03233599 Ry
     cavitation energy         =       0.02123967 Ry
     PV energy                 =      -0.08292275 Ry
     correction to one-el term =     187.76645311 Ry

     iteration # 20     ecut=    50.00 Ry     beta= 0.70
     Davidson diagonalization with overlap
     ethr =  1.86E-09,  avg # of iterations =  2.0

     negative rho (up, down):  2.737E-04 0.000E+00

     add environment contribution to local potential
     Polarization accuracy = 5.8E-12, # of iterations =  44

     total cpu time spent up to now is     7370.0 secs

     total energy              =   -3437.84879772 Ry
     estimated scf accuracy    <       0.00000889 Ry
     electrostatic embedding   =      -0.03215506 Ry
     cavitation energy         =       0.02123511 Ry
     PV energy                 =      -0.08292279 Ry
     correction to one-el term =     187.82648323 Ry

     iteration # 21     ecut=    50.00 Ry     beta= 0.70
     Davidson diagonalization with overlap
     ethr =  1.86E-09,  avg # of iterations =  5.0

     negative rho (up, down):  2.191E-04 0.000E+00

     add environment contribution to local potential
     Polarization accuracy = 5.4E-12, # of iterations =  44

     total cpu time spent up to now is     7723.5 secs

     total energy              =   -3437.84879834 Ry
     estimated scf accuracy    <       0.00000163 Ry
     electrostatic embedding   =      -0.03210247 Ry
     cavitation energy         =       0.02123500 Ry
     PV energy                 =      -0.08291932 Ry
     correction to one-el term =     187.82304525 Ry

     iteration # 22     ecut=    50.00 Ry     beta= 0.70
     Davidson diagonalization with overlap
     ethr =  4.42E-10,  avg # of iterations =  2.0

     negative rho (up, down):  1.411E-04 0.000E+00

     add environment contribution to local potential
     Polarization accuracy = 5.1E-12, # of iterations =  44

     total cpu time spent up to now is     8018.6 secs

     total energy              =   -3437.84879911 Ry
     estimated scf accuracy    <       0.00000071 Ry
     electrostatic embedding   =      -0.03203877 Ry
     cavitation energy         =       0.02123244 Ry
     PV energy                 =      -0.08291883 Ry
     correction to one-el term =     187.83580247 Ry

     iteration # 23     ecut=    50.00 Ry     beta= 0.70
     Davidson diagonalization with overlap
     ethr =  1.92E-10,  avg # of iterations =  2.0

     negative rho (up, down):  1.569E-04 0.000E+00

     add environment contribution to local potential
     Polarization accuracy = 4.9E-12, # of iterations =  44

     total cpu time spent up to now is     8336.1 secs

     total energy              =   -3437.84879948 Ry
     estimated scf accuracy    <       0.00000028 Ry
     electrostatic embedding   =      -0.03202031 Ry
     cavitation energy         =       0.02123190 Ry
     PV energy                 =      -0.08291822 Ry
     correction to one-el term =     187.83015780 Ry

     iteration # 24     ecut=    50.00 Ry     beta= 0.70
     Davidson diagonalization with overlap
     ethr =  7.67E-11,  avg # of iterations =  2.0

     negative rho (up, down):  1.274E-04 0.000E+00

     add environment contribution to local potential
     Polarization accuracy = 4.8E-12, # of iterations =  44

     total cpu time spent up to now is     8614.5 secs

     total energy              =   -3437.84879996 Ry
     estimated scf accuracy    <       0.00000018 Ry
     electrostatic embedding   =      -0.03199865 Ry
     cavitation energy         =       0.02123139 Ry
     PV energy                 =      -0.08291846 Ry
     correction to one-el term =     187.83325419 Ry

     iteration # 25     ecut=    50.00 Ry     beta= 0.70
     Davidson diagonalization with overlap
     ethr =  4.78E-11,  avg # of iterations =  1.0

     negative rho (up, down):  1.345E-04 0.000E+00

     add environment contribution to local potential
     Polarization accuracy = 4.7E-12, # of iterations =  44

     total cpu time spent up to now is     8968.4 secs

     total energy              =   -3437.84880019 Ry
     estimated scf accuracy    <       0.00000010 Ry
     electrostatic embedding   =      -0.03199801 Ry
     cavitation energy         =       0.02123127 Ry
     PV energy                 =      -0.08291830 Ry
     correction to one-el term =     187.82845148 Ry

     iteration # 26     ecut=    50.00 Ry     beta= 0.70
     Davidson diagonalization with overlap
     ethr =  2.83E-11,  avg # of iterations =  1.0

     negative rho (up, down):  1.357E-04 0.000E+00

     add environment contribution to local potential
     Polarization accuracy = 4.8E-12, # of iterations =  44

     total cpu time spent up to now is     9269.4 secs

     total energy              =   -3437.84880049 Ry
     estimated scf accuracy    <       0.00000009 Ry
     electrostatic embedding   =      -0.03199851 Ry
     cavitation energy         =       0.02123152 Ry
     PV energy                 =      -0.08291850 Ry
     correction to one-el term =     187.82748058 Ry

     iteration # 27     ecut=    50.00 Ry     beta= 0.70
     Davidson diagonalization with overlap
     ethr =  2.40E-11,  avg # of iterations =  1.0

     negative rho (up, down):  1.391E-04 0.000E+00

     add environment contribution to local potential
     Polarization accuracy = 4.7E-12, # of iterations =  44

     total cpu time spent up to now is     9621.8 secs

     total energy              =   -3437.84880067 Ry
     estimated scf accuracy    <       0.00000007 Ry
     electrostatic embedding   =      -0.03200054 Ry
     cavitation energy         =       0.02123169 Ry
     PV energy                 =      -0.08291861 Ry
     correction to one-el term =     187.82668480 Ry

     iteration # 28     ecut=    50.00 Ry     beta= 0.70
     Davidson diagonalization with overlap
     ethr =  1.93E-11,  avg # of iterations =  1.0

     negative rho (up, down):  1.353E-04 0.000E+00

     add environment contribution to local potential
     Polarization accuracy = 4.6E-12, # of iterations =  44

     total cpu time spent up to now is     9935.9 secs

     total energy              =   -3437.84880119 Ry
     estimated scf accuracy    <       0.00000007 Ry
     electrostatic embedding   =      -0.03200496 Ry
     cavitation energy         =       0.02123206 Ry
     PV energy                 =      -0.08291884 Ry
     correction to one-el term =     187.82555143 Ry

     iteration # 29     ecut=    50.00 Ry     beta= 0.70
     Davidson diagonalization with overlap
     ethr =  1.91E-11,  avg # of iterations =  1.0

     negative rho (up, down):  1.367E-04 0.000E+00

     add environment contribution to local potential
     Polarization accuracy = 4.7E-12, # of iterations =  44

     total cpu time spent up to now is    10201.9 secs

     total energy              =   -3437.84880172 Ry
     estimated scf accuracy    <       0.00000006 Ry
     electrostatic embedding   =      -0.03200417 Ry
     cavitation energy         =       0.02123216 Ry
     PV energy                 =      -0.08291894 Ry
     correction to one-el term =     187.82483460 Ry

     iteration # 30     ecut=    50.00 Ry     beta= 0.70
     Davidson diagonalization with overlap
     ethr =  1.76E-11,  avg # of iterations =  1.0

     negative rho (up, down):  1.348E-04 0.000E+00

     add environment contribution to local potential
     Polarization accuracy = 4.7E-12, # of iterations =  44

     total cpu time spent up to now is    10502.8 secs

     total energy              =   -3437.84880304 Ry
     estimated scf accuracy    <       0.00000006 Ry
     electrostatic embedding   =      -0.03200743 Ry
     cavitation energy         =       0.02123239 Ry
     PV energy                 =      -0.08291915 Ry
     correction to one-el term =     187.82517948 Ry

     iteration # 31     ecut=    50.00 Ry     beta= 0.70
     Davidson diagonalization with overlap
     ethr =  1.72E-11,  avg # of iterations =  1.0

     negative rho (up, down):  1.306E-04 0.000E+00

     add environment contribution to local potential
     Polarization accuracy = 4.6E-12, # of iterations =  44

     total cpu time spent up to now is    10778.1 secs

     total energy              =   -3437.84880362 Ry
     estimated scf accuracy    <       0.00000005 Ry
     electrostatic embedding   =      -0.03200663 Ry
     cavitation energy         =       0.02123237 Ry
     PV energy                 =      -0.08291919 Ry
     correction to one-el term =     187.82505697 Ry

     iteration # 32     ecut=    50.00 Ry     beta= 0.70
     Davidson diagonalization with overlap
     ethr =  1.48E-11,  avg # of iterations =  2.5

     negative rho (up, down):  1.288E-04 0.000E+00

     add environment contribution to local potential
     Polarization accuracy = 4.6E-12, # of iterations =  44

     total cpu time spent up to now is    11073.5 secs

     total energy              =   -3437.84880764 Ry
     estimated scf accuracy    <       0.00000005 Ry
     electrostatic embedding   =      -0.03200397 Ry
     cavitation energy         =       0.02123219 Ry
     PV energy                 =      -0.08291931 Ry
     correction to one-el term =     187.82730525 Ry

     iteration # 33     ecut=    50.00 Ry     beta= 0.70
     Davidson diagonalization with overlap
     ethr =  1.33E-11,  avg # of iterations =  2.0

     negative rho (up, down):  1.272E-04 0.000E+00

     add environment contribution to local potential
     Polarization accuracy = 4.5E-12, # of iterations =  44

     total cpu time spent up to now is    11422.8 secs

     total energy              =   -3437.84880977 Ry
     estimated scf accuracy    <       0.00000004 Ry
     electrostatic embedding   =      -0.03200046 Ry
     cavitation energy         =       0.02123188 Ry
     PV energy                 =      -0.08291917 Ry
     correction to one-el term =     187.82773340 Ry

     iteration # 34     ecut=    50.00 Ry     beta= 0.70
     Davidson diagonalization with overlap
     ethr =  1.05E-11,  avg # of iterations =  5.0

     negative rho (up, down):  1.277E-04 0.000E+00

     add environment contribution to local potential
     Polarization accuracy = 4.1E-12, # of iterations =  44

     total cpu time spent up to now is    11767.9 secs

     total energy              =   -3437.84881462 Ry
     estimated scf accuracy    <       0.00000004 Ry
     electrostatic embedding   =      -0.03199951 Ry
     cavitation energy         =       0.02123182 Ry
     PV energy                 =      -0.08291925 Ry
     correction to one-el term =     187.82864374 Ry

     iteration # 35     ecut=    50.00 Ry     beta= 0.70
     Davidson diagonalization with overlap
     ethr =  1.03E-11,  avg # of iterations =  2.0

     negative rho (up, down):  1.295E-04 0.000E+00

     add environment contribution to local potential
     Polarization accuracy = 8.4E-12, # of iterations =  43

     total cpu time spent up to now is    12075.0 secs

     total energy              =   -3437.84881921 Ry
     estimated scf accuracy    <       0.00000002 Ry
     electrostatic embedding   =      -0.03199521 Ry
     cavitation energy         =       0.02123151 Ry
     PV energy                 =      -0.08291905 Ry
     correction to one-el term =     187.82924120 Ry

     iteration # 36     ecut=    50.00 Ry     beta= 0.70
     Davidson diagonalization with overlap
     ethr =  5.08E-12,  avg # of iterations =  5.0

     negative rho (up, down):  1.312E-04 0.000E+00

     add environment contribution to local potential
     Polarization accuracy = 8.2E-12, # of iterations =  43

     total cpu time spent up to now is    12381.8 secs

     total energy              =   -3437.84882434 Ry
     estimated scf accuracy    <          9.5E-09 Ry
     electrostatic embedding   =      -0.03199581 Ry
     cavitation energy         =       0.02123165 Ry
     PV energy                 =      -0.08291901 Ry
     correction to one-el term =     187.82763540 Ry

     iteration # 37     ecut=    50.00 Ry     beta= 0.70
     Davidson diagonalization with overlap
     ethr =  2.57E-12,  avg # of iterations =  1.0

     negative rho (up, down):  1.333E-04 0.000E+00

     add environment contribution to local potential
     Polarization accuracy = 8.0E-12, # of iterations =  43

     total cpu time spent up to now is    12668.0 secs

     total energy              =   -3437.84882481 Ry
     estimated scf accuracy    <          3.4E-09 Ry
     electrostatic embedding   =      -0.03199537 Ry
     cavitation energy         =       0.02123160 Ry
     PV energy                 =      -0.08291889 Ry
     correction to one-el term =     187.82785138 Ry

     iteration # 38     ecut=    50.00 Ry     beta= 0.70
     Davidson diagonalization with overlap
     ethr =  9.16E-13,  avg # of iterations =  2.0

     negative rho (up, down):  1.339E-04 0.000E+00

     add environment contribution to local potential
     Polarization accuracy = 8.0E-12, # of iterations =  43

     total cpu time spent up to now is    12920.9 secs

     total energy              =   -3437.84882592 Ry
     estimated scf accuracy    <          1.4E-09 Ry
     electrostatic embedding   =      -0.03199767 Ry
     cavitation energy         =       0.02123181 Ry
     PV energy                 =      -0.08291890 Ry
     correction to one-el term =     187.82711323 Ry

     iteration # 39     ecut=    50.00 Ry     beta= 0.70
     Davidson diagonalization with overlap
     ethr =  3.82E-13,  avg # of iterations =  2.0

     negative rho (up, down):  1.364E-04 0.000E+00

     add environment contribution to local potential
     Polarization accuracy = 7.0E-12, # of iterations =  43

     total cpu time spent up to now is    13254.2 secs

     total energy              =   -3437.84882612 Ry
     estimated scf accuracy    <          2.5E-09 Ry
     electrostatic embedding   =      -0.03199820 Ry
     cavitation energy         =       0.02123183 Ry
     PV energy                 =      -0.08291889 Ry
     correction to one-el term =     187.82713794 Ry

     iteration # 40     ecut=    50.00 Ry     beta= 0.70
     Davidson diagonalization with overlap
     ethr =  3.82E-13,  avg # of iterations =  2.0

     negative rho (up, down):  1.377E-04 0.000E+00

     the potential shift due to the Gaussian-smeared nuclei is    -1.3208 ev

     total cpu time spent up to now is    13577.7 secs

     End of self-consistent calculation

          k = 0.2500 0.2573 0.0000 ( 35510 PWs)   bands (ev):

   -77.2725 -77.2603 -77.2547 -77.2426 -77.2381 -77.2254 -77.2171 -77.2087
   -77.1962 -77.1756 -77.1212 -77.0762 -47.5996 -47.5873 -47.5520 -47.5393
   -47.5327 -47.5205 -47.4937 -47.4692 -47.4567 -47.4186 -47.3619 -47.3010
   -47.2266 -47.2139 -47.1607 -47.1355 -47.1327 -47.1232 -47.1204 -47.1017
   -47.0958 -47.0865 -47.0844 -47.0805 -47.0748 -47.0681 -47.0642 -47.0630
   -47.0549 -47.0425 -47.0156 -47.0125 -47.0022 -46.9905 -46.9696 -46.9079
   -23.9115 -23.8530 -23.6071 -23.5902 -23.4570 -23.2241 -23.1969 -23.0438
   -22.9617 -22.9125 -22.8300 -22.8040 -22.7959 -22.7339 -22.7131 -22.6950
   -22.6271 -22.5282 -22.4975 -22.4127 -22.4061 -22.3952 -22.3671 -22.3439
   -22.2307 -22.2180 -22.1609 -22.1477 -12.1603 -11.8929 -11.5966 -11.5748
   -11.5578 -11.5051 -11.4777 -11.3822 -11.1587 -11.0784 -10.9669 -10.9118
   -10.8994 -10.6958 -10.6814 -10.6484 -10.5808 -10.5768 -10.5543 -10.5317
   -10.4626 -10.3837 -10.3636 -10.3340 -10.2544 -10.2296 -10.0643  -9.9571
    -9.9423  -9.7273  -9.7144  -9.4759  -9.4450  -9.3240  -9.2443  -9.2235
    -9.2072  -9.1398  -9.1016  -8.8748  -8.7543  -8.6792  -8.6534  -8.5366
    -8.5348  -8.3713  -8.3671  -8.3023  -8.2538  -8.1790  -8.1516  -8.0806
    -8.0504  -7.9877  -7.9616  -7.9057  -7.8773  -7.8130  -7.7562  -7.7196
    -7.6632  -7.5946  -7.5345  -7.3903  -7.3431  -7.2534  -7.1209  -7.0816
    -7.0050  -6.9219  -6.8896  -6.7297  -6.6824  -6.5919  -6.5736  -6.5306
    -6.4594  -6.3771  -6.3731  -6.2716  -6.1689  -6.1351  -5.9635  -5.9083
    -4.8491  -4.7096  -4.7054  -4.6798  -4.6390  -4.6136  -4.5438  -4.5064
    -4.4712  -4.4583  -4.4023  -4.3695  -4.3493  -4.3247  -4.2891  -4.2820
    -4.2661  -4.2250  -4.2052  -4.1299  -4.0290  -4.0028  -3.9151  -3.8913
    -3.6859  -3.6559  -3.6078  -3.3204  -3.1882  -3.0635  -3.0242  -2.9399
    -2.9346  -2.8799  -2.7203  -2.5389  -1.6822  -1.6185  -1.4541  -1.4370
    -1.3650  -1.2137  -1.1817  -0.5412  -0.4723  -0.2440  -0.1228  -0.1205
    -0.0641   0.0080   0.0627   0.0749   0.3023   0.3748   0.4874   0.7867
     0.8289   0.8537   0.9976   1.0442   1.1744

          k =-0.2500 0.2573 0.0000 ( 35510 PWs)   bands (ev):

   -77.2725 -77.2603 -77.2547 -77.2426 -77.2381 -77.2254 -77.2171 -77.2087
   -77.1962 -77.1756 -77.1212 -77.0762 -47.5996 -47.5873 -47.5520 -47.5393
   -47.5328 -47.5206 -47.4937 -47.4692 -47.4567 -47.4186 -47.3619 -47.3010
   -47.2267 -47.2140 -47.1607 -47.1340 -47.1332 -47.1218 -47.1208 -47.1017
   -47.0957 -47.0864 -47.0845 -47.0812 -47.0748 -47.0689 -47.0642 -47.0630
   -47.0559 -47.0434 -47.0150 -47.0123 -47.0014 -46.9905 -46.9697 -46.9079
   -23.9119 -23.8535 -23.6071 -23.5903 -23.4566 -23.2221 -23.1959 -23.0439
   -22.9609 -22.9155 -22.8260 -22.8073 -22.7874 -22.7390 -22.7202 -22.6938
   -22.6260 -22.5264 -22.5007 -22.4181 -22.4071 -22.3894 -22.3655 -22.3435
   -22.2303 -22.2178 -22.1610 -22.1475 -12.1597 -11.8914 -11.6111 -11.5907
   -11.5426 -11.4993 -11.4574 -11.3825 -11.1669 -11.0927 -10.9588 -10.9184
   -10.9080 -10.6993 -10.6466 -10.6361 -10.6115 -10.5936 -10.5383 -10.5201
   -10.4532 -10.3962 -10.3583 -10.3557 -10.2668 -10.2398 -10.0315 -10.0207
    -9.9306  -9.7291  -9.6007  -9.4834  -9.4782  -9.3116  -9.2420  -9.1982
    -9.1845  -9.1355  -9.1279  -8.8715  -8.7717  -8.7353  -8.5912  -8.5496
    -8.5296  -8.3961  -8.3901  -8.3485  -8.2807  -8.1616  -8.1575  -8.0812
    -8.0534  -8.0176  -7.9583  -7.9126  -7.8760  -7.8095  -7.7119  -7.6628
    -7.6125  -7.5678  -7.5063  -7.4144  -7.3739  -7.2898  -7.1872  -7.0156
    -6.9377  -6.9114  -6.8978  -6.7756  -6.7626  -6.6059  -6.5647  -6.5228
    -6.4480  -6.3909  -6.3554  -6.3058  -6.1994  -6.0369  -5.9697  -5.8935
    -4.8565  -4.7767  -4.7185  -4.6254  -4.6228  -4.5981  -4.5762  -4.4912
    -4.4847  -4.4713  -4.4163  -4.3737  -4.3481  -4.3108  -4.2915  -4.2896
    -4.2313  -4.2212  -4.1899  -4.1324  -4.0199  -4.0136  -3.9522  -3.8912
    -3.6720  -3.6421  -3.6082  -3.3194  -3.1807  -3.0706  -3.0295  -2.9420
    -2.9353  -2.8796  -2.7199  -2.5389  -1.6819  -1.6104  -1.4522  -1.4403
    -1.3637  -1.2145  -1.1823  -0.5366  -0.4760  -0.2375  -0.1241  -0.1016
    -0.0616   0.0042   0.0474   0.0676   0.3060   0.3683   0.5082   0.7820
     0.8195   0.8462   0.9894   1.0425   1.1744

     the Fermi energy is    -3.8242 ev

!    total energy              =   -3437.84882675 Ry
     estimated scf accuracy    <          3.0E-10 Ry
     smearing contrib. (-TS)   =       0.08703752 Ry
     internal energy E=F+TS    =   -3437.93586427 Ry

     The total energy is F=E-TS. E is the sum of the following terms:
     one-electron contribution =  -25153.99641130 Ry
     hartree contribution      =   12563.66772419 Ry
     xc contribution           =    -449.61707990 Ry
     ewald contribution        =    9680.74449654 Ry
     one-center paw contrib.   =    -266.46763583 Ry
     electrostatic embedding   =      -0.03200073 Ry
     cavitation energy         =       0.02123200 Ry
     PV energy                 =      -0.08291888 Ry
     correction to one-el term =     187.82672965 Ry

     WARNING: you are using the parabolic pbc correction;
              the potential shift above must be added to 
              band and Fermi energies.

     convergence has been achieved in  40 iterations

     negative rho (up, down):  1.377E-04 0.000E+00

     Forces acting on atoms (cartesian axes, Ry/au):

     atom    1 type  1   force =     0.00715596   -0.00192229   -0.00777320
     atom    2 type  1   force =     0.00435023    0.00071945   -0.00799016
     atom    3 type  1   force =     0.00098030   -0.03528765    0.03383673
     atom    4 type  1   force =     0.00047649   -0.06746756    0.03834646
     atom    5 type  2   force =    -0.00081360   -0.00523408   -0.00303368
     atom    6 type  2   force =     0.00038590   -0.00569956   -0.00283025
     atom    7 type  1   force =    -0.00029781    0.03463935    0.00254671
     atom    8 type  1   force =    -0.00035906    0.02365600    0.00111306
     atom    9 type  2   force =    -0.00406613    0.00482273   -0.00187566
     atom   10 type  2   force =     0.00695685    0.00023802   -0.00074581
     atom   11 type  1   force =     0.00082277   -0.02857457   -0.00160581
     atom   12 type  1   force =     0.00104061   -0.01699220   -0.00235691
     atom   13 type  1   force =     0.00003252    0.00016260    0.00122629
     atom   14 type  1   force =    -0.00004913   -0.00008751    0.00170850
     atom   15 type  1   force =    -0.00046311    0.00018016    0.00832510
     atom   16 type  1   force =    -0.00069345    0.00028977   -0.00165449
     atom   17 type  2   force =    -0.01083089    0.00033334    0.00000000
     atom   18 type  2   force =     0.00913073    0.00096293    0.00000000
     atom   19 type  1   force =     0.00219211   -0.03515772    0.00000000
     atom   20 type  1   force =    -0.00269934   -0.01635131    0.00000000
     atom   21 type  2   force =     0.00703706    0.00090226    0.00000000
     atom   22 type  2   force =    -0.00465692    0.00141891    0.00000000
     atom   23 type  1   force =     0.00143568    0.03596756    0.00000000
     atom   24 type  1   force =    -0.00225051    0.01645395    0.00000000
     atom   25 type  1   force =    -0.00046311    0.00018016   -0.00832510
     atom   26 type  1   force =    -0.00069345    0.00028977    0.00165449
     atom   27 type  1   force =     0.00003252    0.00016260   -0.00122629
     atom   28 type  1   force =    -0.00004913   -0.00008751   -0.00170850
     atom   29 type  2   force =    -0.00081360   -0.00523408    0.00303368
     atom   30 type  2   force =     0.00038590   -0.00569956    0.00283025
     atom   31 type  1   force =    -0.00029781    0.03463935   -0.00254671
     atom   32 type  1   force =    -0.00035906    0.02365600   -0.00111306
     atom   33 type  2   force =    -0.00406613    0.00482273    0.00187566
     atom   34 type  2   force =     0.00695685    0.00023802    0.00074581
     atom   35 type  1   force =     0.00082277   -0.02857457    0.00160581
     atom   36 type  1   force =     0.00104061   -0.01699220    0.00235691
     atom   37 type  1   force =     0.00098030   -0.03528765   -0.03383673
     atom   38 type  1   force =     0.00047649   -0.06746756   -0.03834646
     atom   39 type  1   force =     0.00715596   -0.00192229    0.00777320
     atom   40 type  1   force =     0.00435023    0.00071945    0.00799016
     atom   41 type  3   force =    -0.00783600    0.00095127    0.00161645
     atom   42 type  3   force =    -0.00783600    0.00095127   -0.00161645
     atom   43 type  3   force =    -0.00495842    0.00032439    0.00121604
     atom   44 type  3   force =    -0.00495842    0.00032439   -0.00121604
     atom   45 type  3   force =    -0.00041813    0.03204772   -0.03245193
     atom   46 type  3   force =    -0.00041813    0.03204772    0.03245193
     atom   47 type  3   force =    -0.00192576    0.06096900   -0.03756170
     atom   48 type  3   force =    -0.00192576    0.06096900    0.03756170
     The non-local contrib.  to forces
     atom    1 type  1   force =     1.71840437    0.03831586    0.39889138
     atom    2 type  1   force =     1.69144206    0.28948332    0.21570763
     atom    3 type  1   force =    -0.01440429    1.28402314   -0.35865601
     atom    4 type  1   force =     0.00219338    1.42215710    0.04839942
     atom    5 type  2   force =     0.00339159    0.01041825    0.04433419
     atom    6 type  2   force =    -0.00526550    0.00913361    0.04748735
     atom    7 type  1   force =    -0.02290717   -0.00972708   -0.04099644
     atom    8 type  1   force =     0.00634154   -0.04418205   -0.02242583
     atom    9 type  2   force =    -0.00493297    0.00749880    0.03190364
     atom   10 type  2   force =     0.00812646    0.00661812    0.04906153
     atom   11 type  1   force =     0.01670113   -0.03826631    0.07751186
     atom   12 type  1   force =    -0.02337571    0.00009183    0.08835563
     atom   13 type  1   force =     0.01638086    0.06102664   -0.02541863
     atom   14 type  1   force =    -0.00895623    0.04182790   -0.03984402
     atom   15 type  1   force =     0.01276895   -0.03648564    0.09041990
     atom   16 type  1   force =    -0.01644635   -0.02633045   -0.02697702
     atom   17 type  2   force =    -0.00474909   -0.00214343    0.00000000
     atom   18 type  2   force =     0.00153946    0.00000623    0.00000000
     atom   19 type  1   force =    -0.03389836   -0.02224300    0.00000000
     atom   20 type  1   force =     0.03147003    0.02323812    0.00000000
     atom   21 type  2   force =     0.00398326    0.00213310    0.00000000
     atom   22 type  2   force =     0.01018640    0.00213765    0.00000000
     atom   23 type  1   force =    -0.02212943    0.02933698    0.00000000
     atom   24 type  1   force =     0.02075879   -0.01496982    0.00000000
     atom   25 type  1   force =     0.01276895   -0.03648564   -0.09041990
     atom   26 type  1   force =    -0.01644635   -0.02633045    0.02697702
     atom   27 type  1   force =     0.01638086    0.06102664    0.02541863
     atom   28 type  1   force =    -0.00895623    0.04182790    0.03984402
     atom   29 type  2   force =     0.00339159    0.01041825   -0.04433419
     atom   30 type  2   force =    -0.00526550    0.00913361   -0.04748735
     atom   31 type  1   force =    -0.02290717   -0.00972708    0.04099644
     atom   32 type  1   force =     0.00634154   -0.04418205    0.02242583
     atom   33 type  2   force =    -0.00493297    0.00749880   -0.03190364
     atom   34 type  2   force =     0.00812646    0.00661812   -0.04906153
     atom   35 type  1   force =     0.01670113   -0.03826631   -0.07751186
     atom   36 type  1   force =    -0.02337571    0.00009183   -0.08835563
     atom   37 type  1   force =    -0.01440429    1.28402314    0.35865601
     atom   38 type  1   force =     0.00219338    1.42215710   -0.04839942
     atom   39 type  1   force =     1.71840437    0.03831586   -0.39889138
     atom   40 type  1   force =     1.69144206    0.28948332   -0.21570763
     atom   41 type  3   force =    -0.09784647   -0.00241485    0.03579579
     atom   42 type  3   force =    -0.09784647   -0.00241485   -0.03579579
     atom   43 type  3   force =    -0.09567891   -0.01617309    0.04402632
     atom   44 type  3   force =    -0.09567891   -0.01617309   -0.04402632
     atom   45 type  3   force =     0.00124885   -0.08040260    0.08663501
     atom   46 type  3   force =     0.00124885   -0.08040260   -0.08663501
     atom   47 type  3   force =     0.00026932   -0.09969623    0.06411444
     atom   48 type  3   force =     0.00026932   -0.09969623   -0.06411444
     The ionic contribution  to forces
     atom    1 type  1   force =    -3.05975963    0.48476695  -94.43008211
     atom    2 type  1   force =    -2.45530739    0.09446809  -93.81660474
     atom    3 type  1   force =    -0.08509427   -3.13283475  -90.45954494
     atom    4 type  1   force =     0.13094314   -3.84531667  -91.14565583
     atom    5 type  2   force =     0.00327615   -2.29477660 -167.84035553
     atom    6 type  2   force =    -0.01398251   -2.27159429 -167.36795809
     atom    7 type  1   force =    -0.08543342   -0.16044298  -61.08720265
     atom    8 type  1   force =    -0.00268832   -0.28218612  -61.57859734
     atom    9 type  2   force =    -0.90986084    2.40908303 -169.61121277
     atom   10 type  2   force =     0.82975416    2.56545603 -165.27110417
     atom   11 type  1   force =    -0.00944805    0.89549011  -64.94223361
     atom   12 type  1   force =     0.06351514    1.05675260  -65.53636287
     atom   13 type  1   force =    -0.26560478   -0.61911025  -37.20537630
     atom   14 type  1   force =     0.20403153   -0.54995150  -37.06102162
     atom   15 type  1   force =    -0.22127508    0.37538509  -26.26259885
     atom   16 type  1   force =     0.20281045    0.23786943  -24.76660998
     atom   17 type  2   force =    -0.49459586    0.11663539   -0.00045633
     atom   18 type  2   force =     0.45039568    0.11668280   -0.00045242
     atom   19 type  1   force =     0.31384164    0.65300052   -0.00008319
     atom   20 type  1   force =    -0.26245920    1.08322855   -0.00008269
     atom   21 type  2   force =     0.08039828   -0.05444030   -0.00026907
     atom   22 type  2   force =     0.05861991   -0.03186923   -0.00026599
     atom   23 type  1   force =     0.29416100   -0.68488371   -0.00008019
     atom   24 type  1   force =    -0.26107660   -1.15277755   -0.00007982
     atom   25 type  1   force =    -0.22127660    0.37538835   26.26245461
     atom   26 type  1   force =     0.20280863    0.23787002   24.76640155
     atom   27 type  1   force =    -0.26560914   -0.61911384   37.20567733
     atom   28 type  1   force =     0.20403378   -0.54995159   37.06131704
     atom   29 type  2   force =     0.00327465   -2.29477355  167.84064525
     atom   30 type  2   force =    -0.01397945   -2.27159104  167.36824726
     atom   31 type  1   force =    -0.08543125   -0.16047473   61.08726432
     atom   32 type  1   force =    -0.00268811   -0.28221717   61.57865794
     atom   33 type  2   force =    -0.90987025    2.40908870  169.61134892
     atom   34 type  2   force =     0.82975149    2.56546090  165.27122902
     atom   35 type  1   force =    -0.00944645    0.89552162   64.94229635
     atom   36 type  1   force =     0.06351559    1.05678355   65.53642424
     atom   37 type  1   force =    -0.08509210   -3.13310250   90.45950844
     atom   38 type  1   force =     0.13094289   -3.84557512   91.14573370
     atom   39 type  1   force =    -3.05982913    0.48476973   94.43020693
     atom   40 type  1   force =    -2.45538873    0.09446055   93.81672007
     atom   41 type  3   force =     2.79518578    0.21499170  -16.07280068
     atom   42 type  3   force =     2.79525917    0.21499374   16.07280607
     atom   43 type  3   force =     2.82024348    0.64477305  -16.22007403
     atom   44 type  3   force =     2.82032979    0.64478757   16.22009086
     atom   45 type  3   force =    -0.06088046    1.91701199  -17.56210087
     atom   46 type  3   force =    -0.06088380    1.91726955   17.56223549
     atom   47 type  3   force =     0.02993459    2.23737829  -16.97321838
     atom   48 type  3   force =     0.02993450    2.23761561   16.97321967
     The local contribution  to forces
     atom    1 type  1   force =     1.34989999   -0.45228899   94.01390195
     atom    2 type  1   force =     0.76148239   -0.32714550   93.59390704
     atom    3 type  1   force =     0.10055258    1.76107819   90.87823528
     atom    4 type  1   force =    -0.13656238    2.31153732   91.13113613
     atom    5 type  2   force =     0.00344158    2.23660602  167.79466773
     atom    6 type  2   force =     0.01012648    2.21362133  167.32240298
     atom    7 type  1   force =     0.11073725    0.21219360   61.14140743
     atom    8 type  1   force =    -0.00603038    0.35710238   61.61475572
     atom    9 type  2   force =     0.91143914   -2.36969577  169.57229057
     atom   10 type  2   force =    -0.83488413   -2.53543134  165.21307902
     atom   11 type  1   force =    -0.00391310   -0.88207222   64.84645213
     atom   12 type  1   force =    -0.04004562   -1.06848687   65.43057003
     atom   13 type  1   force =     0.24962026    0.55403068   37.23253154
     atom   14 type  1   force =    -0.19548902    0.50383299   37.10081744
     atom   15 type  1   force =     0.20833047   -0.33657767   26.18114970
     atom   16 type  1   force =    -0.18740224   -0.20930663   24.79053743
     atom   17 type  2   force =     0.48870826   -0.11761542   -0.00581730
     atom   18 type  2   force =    -0.44298669   -0.11910353   -0.00580644
     atom   19 type  1   force =    -0.27779005   -0.66700500   -0.00243141
     atom   20 type  1   force =     0.22833418   -1.12317014   -0.00241885
     atom   21 type  2   force =    -0.07680525    0.05660559   -0.00599494
     atom   22 type  2   force =    -0.07397679    0.03455937   -0.00597357
     atom   23 type  1   force =    -0.27054636    0.69184281   -0.00243713
     atom   24 type  1   force =     0.23802076    1.18370421   -0.00242472
     atom   25 type  1   force =     0.20833111   -0.33658328  -26.18285999
     atom   26 type  1   force =    -0.18741056   -0.20930752  -24.79228750
     atom   27 type  1   force =     0.24961898    0.55403734  -37.23429683
     atom   28 type  1   force =    -0.19548871    0.50384184  -37.10258960
     atom   29 type  2   force =     0.00343785    2.23664131 -167.80069305
     atom   30 type  2   force =     0.01013229    2.21365666 -167.32841524
     atom   31 type  1   force =     0.11073385    0.21220411  -61.14383676
     atom   32 type  1   force =    -0.00602651    0.35711083  -61.61717830
     atom   33 type  2   force =     0.91144548   -2.36972967 -169.57805273
     atom   34 type  2   force =    -0.83489189   -2.53548706 -165.21888420
     atom   35 type  1   force =    -0.00392442   -0.88209144  -64.84889143
     atom   36 type  1   force =    -0.04003348   -1.06850338  -65.43300074
     atom   37 type  1   force =     0.10055215    1.76120810  -90.88198191
     atom   38 type  1   force =    -0.13656150    2.31167825  -91.13492270
     atom   39 type  1   force =     1.34992386   -0.45230885  -94.01545586
     atom   40 type  1   force =     0.76150826   -0.32717279  -93.59549759
     atom   41 type  3   force =    -2.70873665   -0.20009544   16.04441073
     atom   42 type  3   force =    -2.70873665   -0.20009544  -16.04441073
     atom   43 type  3   force =    -2.73708130   -0.62033448   16.18749215
     atom   44 type  3   force =    -2.73708130   -0.62033448  -16.18749215
     atom   45 type  3   force =     0.05888021   -1.81378019   17.46704920
     atom   46 type  3   force =     0.05888021   -1.81378019  -17.46704920
     atom   47 type  3   force =    -0.03419601   -2.08283735   16.87983283
     atom   48 type  3   force =    -0.03419601   -2.08283735  -16.87983283
     The core correction contribution to forces
     atom    1 type  1   force =    -0.01727393   -0.00035079   -0.00409947
     atom    2 type  1   force =    -0.01701604   -0.00294400   -0.00243782
     atom    3 type  1   force =     0.00011734   -0.01238654    0.00273709
     atom    4 type  1   force =    -0.00002707   -0.01318980   -0.00149940
     atom    5 type  2   force =     0.00000000    0.00000000    0.00000000
     atom    6 type  2   force =     0.00000000    0.00000000    0.00000000
     atom    7 type  1   force =     0.00031022   -0.00060225    0.00038725
     atom    8 type  1   force =    -0.00005567   -0.00001567    0.00019318
     atom    9 type  2   force =     0.00000000    0.00000000    0.00000000
     atom   10 type  2   force =     0.00000000    0.00000000    0.00000000
     atom   11 type  1   force =    -0.00011606    0.00110819   -0.00075617
     atom   12 type  1   force =     0.00021826    0.00048259   -0.00084609
     atom   13 type  1   force =    -0.00016410   -0.00069486    0.00018084
     atom   14 type  1   force =     0.00010208   -0.00048452    0.00025729
     atom   15 type  1   force =    -0.00015700    0.00039443   -0.00160573
     atom   16 type  1   force =     0.00019898    0.00032580   -0.00001077
     atom   17 type  2   force =     0.00000000    0.00000000    0.00000000
     atom   18 type  2   force =     0.00000000    0.00000000    0.00000000
     atom   19 type  1   force =     0.00029489    0.00079124   -0.00000206
     atom   20 type  1   force =    -0.00029662    0.00000882   -0.00000198
     atom   21 type  2   force =     0.00000000    0.00000000    0.00000000
     atom   22 type  2   force =     0.00000000    0.00000000    0.00000000
     atom   23 type  1   force =     0.00017934   -0.00086488   -0.00000200
     atom   24 type  1   force =    -0.00017915   -0.00008072   -0.00000189
     atom   25 type  1   force =    -0.00015702    0.00039450    0.00160366
     atom   26 type  1   force =     0.00019894    0.00032599    0.00000859
     atom   27 type  1   force =    -0.00016410   -0.00069497   -0.00018306
     atom   28 type  1   force =     0.00010209   -0.00048459   -0.00025950
     atom   29 type  2   force =     0.00000000    0.00000000    0.00000000
     atom   30 type  2   force =     0.00000000    0.00000000    0.00000000
     atom   31 type  1   force =     0.00031021   -0.00060214   -0.00038917
     atom   32 type  1   force =    -0.00005565   -0.00001553   -0.00019504
     atom   33 type  2   force =     0.00000000    0.00000000    0.00000000
     atom   34 type  2   force =     0.00000000    0.00000000    0.00000000
     atom   35 type  1   force =    -0.00011608    0.00110814    0.00075413
     atom   36 type  1   force =     0.00021834    0.00048250    0.00084406
     atom   37 type  1   force =     0.00011735   -0.01238853   -0.00274156
     atom   38 type  1   force =    -0.00002706   -0.01319170    0.00149563
     atom   39 type  1   force =    -0.01727473   -0.00035084    0.00409727
     atom   40 type  1   force =    -0.01701680   -0.00294409    0.00243533
     atom   41 type  3   force =     0.00000000    0.00000000    0.00000000
     atom   42 type  3   force =     0.00000000    0.00000000    0.00000000
     atom   43 type  3   force =     0.00000000    0.00000000    0.00000000
     atom   44 type  3   force =     0.00000000    0.00000000    0.00000000
     atom   45 type  3   force =     0.00000000    0.00000000    0.00000000
     atom   46 type  3   force =     0.00000000    0.00000000    0.00000000
     atom   47 type  3   force =     0.00000000    0.00000000    0.00000000
     atom   48 type  3   force =     0.00000000    0.00000000    0.00000000
     The Hubbard contrib.    to forces
     atom    1 type  1   force =     0.00000000    0.00000000    0.00000000
     atom    2 type  1   force =     0.00000000    0.00000000    0.00000000
     atom    3 type  1   force =     0.00000000    0.00000000    0.00000000
     atom    4 type  1   force =     0.00000000    0.00000000    0.00000000
     atom    5 type  2   force =     0.00000000    0.00000000    0.00000000
     atom    6 type  2   force =     0.00000000    0.00000000    0.00000000
     atom    7 type  1   force =     0.00000000    0.00000000    0.00000000
     atom    8 type  1   force =     0.00000000    0.00000000    0.00000000
     atom    9 type  2   force =     0.00000000    0.00000000    0.00000000
     atom   10 type  2   force =     0.00000000    0.00000000    0.00000000
     atom   11 type  1   force =     0.00000000    0.00000000    0.00000000
     atom   12 type  1   force =     0.00000000    0.00000000    0.00000000
     atom   13 type  1   force =     0.00000000    0.00000000    0.00000000
     atom   14 type  1   force =     0.00000000    0.00000000    0.00000000
     atom   15 type  1   force =     0.00000000    0.00000000    0.00000000
     atom   16 type  1   force =     0.00000000    0.00000000    0.00000000
     atom   17 type  2   force =     0.00000000    0.00000000    0.00000000
     atom   18 type  2   force =     0.00000000    0.00000000    0.00000000
     atom   19 type  1   force =     0.00000000    0.00000000    0.00000000
     atom   20 type  1   force =     0.00000000    0.00000000    0.00000000
     atom   21 type  2   force =     0.00000000    0.00000000    0.00000000
     atom   22 type  2   force =     0.00000000    0.00000000    0.00000000
     atom   23 type  1   force =     0.00000000    0.00000000    0.00000000
     atom   24 type  1   force =     0.00000000    0.00000000    0.00000000
     atom   25 type  1   force =     0.00000000    0.00000000    0.00000000
     atom   26 type  1   force =     0.00000000    0.00000000    0.00000000
     atom   27 type  1   force =     0.00000000    0.00000000    0.00000000
     atom   28 type  1   force =     0.00000000    0.00000000    0.00000000
     atom   29 type  2   force =     0.00000000    0.00000000    0.00000000
     atom   30 type  2   force =     0.00000000    0.00000000    0.00000000
     atom   31 type  1   force =     0.00000000    0.00000000    0.00000000
     atom   32 type  1   force =     0.00000000    0.00000000    0.00000000
     atom   33 type  2   force =     0.00000000    0.00000000    0.00000000
     atom   34 type  2   force =     0.00000000    0.00000000    0.00000000
     atom   35 type  1   force =     0.00000000    0.00000000    0.00000000
     atom   36 type  1   force =     0.00000000    0.00000000    0.00000000
     atom   37 type  1   force =     0.00000000    0.00000000    0.00000000
     atom   38 type  1   force =     0.00000000    0.00000000    0.00000000
     atom   39 type  1   force =     0.00000000    0.00000000    0.00000000
     atom   40 type  1   force =     0.00000000    0.00000000    0.00000000
     atom   41 type  3   force =     0.00000000    0.00000000    0.00000000
     atom   42 type  3   force =     0.00000000    0.00000000    0.00000000
     atom   43 type  3   force =     0.00000000    0.00000000    0.00000000
     atom   44 type  3   force =     0.00000000    0.00000000    0.00000000
     atom   45 type  3   force =     0.00000000    0.00000000    0.00000000
     atom   46 type  3   force =     0.00000000    0.00000000    0.00000000
     atom   47 type  3   force =     0.00000000    0.00000000    0.00000000
     atom   48 type  3   force =     0.00000000    0.00000000    0.00000000
     The SCF correction term to forces
     atom    1 type  1   force =    -0.00000537   -0.00001196    0.00000134
     atom    2 type  1   force =     0.00000529   -0.00000899   -0.00000416
     atom    3 type  1   force =    -0.00000919    0.00001208   -0.00000391
     atom    4 type  1   force =     0.00000952    0.00000863   -0.00000315
     atom    5 type  2   force =    -0.00000568    0.00001770    0.00000367
     atom    6 type  2   force =     0.00000525    0.00001773   -0.00000031
     atom    7 type  1   force =    -0.00000618    0.00000306   -0.00000011
     atom    8 type  1   force =     0.00000582   -0.00000557   -0.00000234
     atom    9 type  2   force =    -0.00001024   -0.00001880    0.00000355
     atom   10 type  2   force =     0.00000970   -0.00001626    0.00000275
     atom   11 type  1   force =    -0.00000498   -0.00000754    0.00000495
     atom   12 type  1   force =     0.00000511    0.00000049    0.00000297
     atom   13 type  1   force =    -0.00000846    0.00000399    0.00000647
     atom   14 type  1   force =     0.00000859    0.00000375    0.00000714
     atom   15 type  1   force =     0.00000002   -0.00000304    0.00000412
     atom   16 type  1   force =    -0.00000013   -0.00000271    0.00000924
     atom   17 type  2   force =    -0.00000517    0.00000802    0.00001087
     atom   18 type  2   force =     0.00000516    0.00000788    0.00001077
     atom   19 type  1   force =    -0.00000151    0.00000287    0.00000387
     atom   20 type  1   force =     0.00000140   -0.00000033    0.00000388
     atom   21 type  2   force =    -0.00000484   -0.00000755    0.00001071
     atom   22 type  2   force =     0.00000516   -0.00000813    0.00001073
     atom   23 type  1   force =    -0.00000146   -0.00000130    0.00000396
     atom   24 type  1   force =     0.00000137    0.00000224    0.00000396
     atom   25 type  1   force =     0.00000001   -0.00000294    0.00000098
     atom   26 type  1   force =    -0.00000012   -0.00000262   -0.00000380
     atom   27 type  1   force =    -0.00000847    0.00000385   -0.00000388
     atom   28 type  1   force =     0.00000860    0.00000360   -0.00000459
     atom   29 type  2   force =    -0.00000580    0.00001712   -0.00000730
     atom   30 type  2   force =     0.00000537    0.00001717   -0.00000328
     atom   31 type  1   force =    -0.00000622    0.00000289   -0.00000111
     atom   32 type  1   force =     0.00000586   -0.00000572    0.00000110
     atom   33 type  2   force =    -0.00001030   -0.00001826   -0.00000777
     atom   34 type  2   force =     0.00000976   -0.00001570   -0.00000655
     atom   35 type  1   force =    -0.00000501   -0.00000723   -0.00000634
     atom   36 type  1   force =     0.00000514    0.00000080   -0.00000438
     atom   37 type  1   force =    -0.00000921    0.00001189    0.00000157
     atom   38 type  1   force =     0.00000954    0.00000841    0.00000085
     atom   39 type  1   force =    -0.00000540   -0.00001185   -0.00000311
     atom   40 type  1   force =     0.00000529   -0.00000888    0.00000237
     atom   41 type  3   force =    -0.00000057   -0.00000128   -0.00000042
     atom   42 type  3   force =    -0.00000055   -0.00000126    0.00000015
     atom   43 type  3   force =     0.00000066   -0.00000107   -0.00000050
     atom   44 type  3   force =     0.00000069   -0.00000105    0.00000023
     atom   45 type  3   force =    -0.00000079    0.00000088   -0.00000003
     atom   46 type  3   force =    -0.00000079    0.00000086   -0.00000028
     atom   47 type  3   force =     0.00000091    0.00000058   -0.00000049
     atom   48 type  3   force =     0.00000091    0.00000056    0.00000018

     Total force =     0.203603     Total SCF correction =     0.000081

     BFGS Geometry Optimization
     Energy error            =      0.0E+00 Ry
     Gradient error          =      6.7E-02 Ry/Bohr

     number of scf cycles    =   1
     number of bfgs steps    =   0

     energy             new  =   -3437.8488267451 Ry

     new trust radius        =       0.0776050916 bohr
     new conv_thr            =       0.0000000010 Ry


ATOMIC_POSITIONS (crystal)
O             0.0025535331        0.4803462292        0.2676536584
O             0.4878651317        0.4608671510        0.2698831258
O            -0.0023249857        0.0069299817        0.3019754408
O             0.4986641429        0.0134475816        0.3010325921
Ru            0.2483922879        0.0023837950        0.3582708096
Ru            0.7480469268        0.0022639546        0.3584066456
O             0.2477536964        0.3071672645        0.3590792032
O             0.7499324356        0.3100648517        0.3585318936
Ru           -0.0000311369        0.5015514729        0.3551382453
Ru            0.4966516394        0.5013037259        0.3582914678
O             0.2509186003        0.6967670978        0.3548146145
O             0.7454738572        0.6937243120        0.3539742001
O            -0.0013325886       -0.0032422962        0.4116030113
O             0.4980858924       -0.0011730708        0.4113078401
O            -0.0004657531        0.5054807457        0.4419399019
O             0.5005245477        0.5030847127        0.4458810283
Ru            0.0009567151        0.0011463864        0.5000010000
Ru            0.4976982767        0.0012678749        0.5000010000
O             0.2475478174        0.1949917023        0.5000010000
O             0.7503001795        0.1913606537        0.5000010000
Ru            0.2448883599        0.5015227692        0.5000010000
Ru            0.7546853325        0.5017715124        0.5000010000
O             0.2486286885        0.8080511308        0.5000010000
O             0.7495707411        0.8121619428        0.5000010000
O            -0.0004657531        0.5054807457        0.5580610981
O             0.5005245477        0.5030847127        0.5541199717
O            -0.0013325886       -0.0032422962        0.5883979887
O             0.4980858924       -0.0011730708        0.5886931599
Ru            0.2483922879        0.0023837950        0.6417301904
Ru            0.7480469268        0.0022639546        0.6415943544
O             0.2477536964        0.3071672645        0.6409217968
O             0.7499324356        0.3100648517        0.6414691064
Ru           -0.0000311369        0.5015514729        0.6448627547
Ru            0.4966516394        0.5013037259        0.6417095322
O             0.2509186003        0.6967670978        0.6451863855
O             0.7454738572        0.6937243120        0.6460267999
O            -0.0023249857        0.0069299817        0.6980265592
O             0.4986641429        0.0134475816        0.6989694079
O             0.0025535331        0.4803462292        0.7323473416
O             0.4878651317        0.4608671510        0.7301178742
H             0.1469962956        0.4840510572        0.2533359362
H             0.1469962956        0.4840510572        0.7466640638
H             0.6259240532        0.4846339070        0.2525650647
H             0.6259240532        0.4846339070        0.7474349353
H            -0.0038518227        0.1186769577        0.2691505690
H            -0.0038518227        0.1186769577        0.7308494310
H             0.4983551914        0.1539665825        0.2764141482
H             0.4983551914        0.1539665825        0.7235858518



     Writing config-only to output data dir /storage/home/mgm6007/ixd4/Maria/Strain0_Files/RuO2-110-0-0123/RuO2-110-0-0123.save/
     NEW-OLD atomic charge density approx. for the potential

     Check: negative core charge=   -0.000001

     negative rho (up, down):  1.355E-04 0.000E+00

     add environment contribution to local potential
     Polarization accuracy = 5.7E-12, # of iterations =  43

     total cpu time spent up to now is    13879.0 secs

     per-process dynamical memory:   224.5 Mb

     Self-consistent Calculation

     iteration #  1     ecut=    50.00 Ry     beta= 0.70
     Davidson diagonalization with overlap
     ethr =  1.00E-06,  avg # of iterations =  7.0

     negative rho (up, down):  8.924E-05 0.000E+00

     add environment contribution to local potential
     Polarization accuracy = 7.9E-12, # of iterations =  43

     total cpu time spent up to now is    14207.0 secs

     total energy              =   -3437.85627160 Ry
     estimated scf accuracy    <       0.01984377 Ry
     electrostatic embedding   =      -0.03130931 Ry
     cavitation energy         =       0.02119179 Ry
     PV energy                 =      -0.08299545 Ry
     correction to one-el term =     187.99984188 Ry

     iteration #  2     ecut=    50.00 Ry     beta= 0.70
     Davidson diagonalization with overlap
     ethr =  5.39E-06,  avg # of iterations =  2.0

     negative rho (up, down):  5.307E-05 0.000E+00

     add environment contribution to local potential
     Polarization accuracy = 6.5E-12, # of iterations =  43

     total cpu time spent up to now is    14522.6 secs

     total energy              =   -3437.85749983 Ry
     estimated scf accuracy    <       0.00401077 Ry
     electrostatic embedding   =      -0.03146379 Ry
     cavitation energy         =       0.02118989 Ry
     PV energy                 =      -0.08300493 Ry
     correction to one-el term =     187.94076218 Ry

     iteration #  3     ecut=    50.00 Ry     beta= 0.70
     Davidson diagonalization with overlap
     ethr =  1.09E-06,  avg # of iterations =  2.0

     negative rho (up, down):  3.599E-05 0.000E+00

     add environment contribution to local potential
     Polarization accuracy = 5.6E-12, # of iterations =  42

     total cpu time spent up to now is    14812.8 secs

     total energy              =   -3437.85758305 Ry
     estimated scf accuracy    <       0.00593197 Ry
     electrostatic embedding   =      -0.03169508 Ry
     cavitation energy         =       0.02118954 Ry
     PV energy                 =      -0.08300947 Ry
     correction to one-el term =     187.85511239 Ry

     iteration #  4     ecut=    50.00 Ry     beta= 0.70
     Davidson diagonalization with overlap
     ethr =  1.09E-06,  avg # of iterations =  1.0

     negative rho (up, down):  2.240E-05 0.000E+00

     add environment contribution to local potential
     Polarization accuracy = 4.5E-12, # of iterations =  43

     total cpu time spent up to now is    15099.3 secs

     total energy              =   -3437.85778246 Ry
     estimated scf accuracy    <       0.00082423 Ry
     electrostatic embedding   =      -0.03185821 Ry
     cavitation energy         =       0.02118923 Ry
     PV energy                 =      -0.08301163 Ry
     correction to one-el term =     187.78398431 Ry

     iteration #  5     ecut=    50.00 Ry     beta= 0.70
     Davidson diagonalization with overlap
     ethr =  2.24E-07,  avg # of iterations =  2.0

     negative rho (up, down):  1.779E-05 0.000E+00

     add environment contribution to local potential
     Polarization accuracy = 4.1E-12, # of iterations =  43

     total cpu time spent up to now is    15421.8 secs

     total energy              =   -3437.85781101 Ry
     estimated scf accuracy    <       0.00030011 Ry
     electrostatic embedding   =      -0.03207946 Ry
     cavitation energy         =       0.02119061 Ry
     PV energy                 =      -0.08301171 Ry
     correction to one-el term =     187.68070262 Ry

     iteration #  6     ecut=    50.00 Ry     beta= 0.70
     Davidson diagonalization with overlap
     ethr =  8.16E-08,  avg # of iterations =  1.0

     negative rho (up, down):  1.608E-05 0.000E+00

     add environment contribution to local potential
     Polarization accuracy = 4.4E-12, # of iterations =  43

     total cpu time spent up to now is    15761.1 secs

     total energy              =   -3437.85783550 Ry
     estimated scf accuracy    <       0.00011652 Ry
     electrostatic embedding   =      -0.03223758 Ry
     cavitation energy         =       0.02119380 Ry
     PV energy                 =      -0.08300813 Ry
     correction to one-el term =     187.61304784 Ry

     iteration #  7     ecut=    50.00 Ry     beta= 0.70
     Davidson diagonalization with overlap
     ethr =  3.17E-08,  avg # of iterations =  1.0

     negative rho (up, down):  1.605E-05 0.000E+00

     add environment contribution to local potential
     Polarization accuracy = 4.7E-12, # of iterations =  43

     total cpu time spent up to now is    16071.5 secs

     total energy              =   -3437.85783921 Ry
     estimated scf accuracy    <       0.00005809 Ry
     electrostatic embedding   =      -0.03238102 Ry
     cavitation energy         =       0.02119770 Ry
     PV energy                 =      -0.08300254 Ry
     correction to one-el term =     187.54647122 Ry

     iteration #  8     ecut=    50.00 Ry     beta= 0.70
     Davidson diagonalization with overlap
     ethr =  1.58E-08,  avg # of iterations =  1.0

     negative rho (up, down):  1.919E-05 0.000E+00

     add environment contribution to local potential
     Polarization accuracy = 3.9E-12, # of iterations =  43

     total cpu time spent up to now is    16349.0 secs

     total energy              =   -3437.85784313 Ry
     estimated scf accuracy    <       0.00001557 Ry
     electrostatic embedding   =      -0.03251695 Ry
     cavitation energy         =       0.02120173 Ry
     PV energy                 =      -0.08299641 Ry
     correction to one-el term =     187.48373207 Ry

     iteration #  9     ecut=    50.00 Ry     beta= 0.70
     Davidson diagonalization with overlap
[...]
     atom   22 type  2   force =    -0.33320571    0.27123484   -0.00596777
     atom   23 type  1   force =    -0.06962641    1.65081997   -0.00243155
     atom   24 type  1   force =     0.09063952    1.63738892   -0.00243227
     atom   25 type  1   force =     0.06833711   -0.50174215  -25.78744459
     atom   26 type  1   force =     0.05296064   -0.44217550  -25.31652192
     atom   27 type  1   force =     0.06392110    0.73188732  -37.28338808
     atom   28 type  1   force =     0.00568049    0.75106803  -37.23998857
     atom   29 type  2   force =     0.06731118    2.92526747 -167.58320863
     atom   30 type  2   force =     0.02705000    2.89742840 -167.77593104
     atom   31 type  1   force =     0.07100087    1.07298369  -59.43569733
     atom   32 type  1   force =     0.04034540    1.04655093  -59.74477517
     atom   33 type  2   force =     0.20811385   -3.48336676 -168.27441829
     atom   34 type  2   force =    -0.26856541   -3.52948456 -166.67016515
     atom   35 type  1   force =    -0.02246797   -1.83018677  -66.66004142
     atom   36 type  1   force =     0.03740417   -1.79736360  -66.86231588
     atom   37 type  1   force =     0.01182923    2.47851633  -91.04106559
     atom   38 type  1   force =    -0.09422857    2.53364807  -91.07367774
     atom   39 type  1   force =     1.18245102   -0.37841060  -93.47717028
     atom   40 type  1   force =     0.97099652   -0.39646390  -93.32702048
     atom   41 type  3   force =    -2.69536221   -0.67416944   16.15219567
     atom   42 type  3   force =    -2.69536221   -0.67416944  -16.15219567
     atom   43 type  3   force =    -2.67932128   -0.75920417   16.22336158
     atom   44 type  3   force =    -2.67932128   -0.75920417  -16.22336158
     atom   45 type  3   force =     0.03710542   -1.66758943   16.61609495
     atom   46 type  3   force =     0.03710542   -1.66758943  -16.61609495
     atom   47 type  3   force =     0.02418752   -1.63719216   16.54244750
     atom   48 type  3   force =     0.02418752   -1.63719216  -16.54244750
     The core correction contribution to forces
     atom    1 type  1   force =    -0.01693665   -0.00279253   -0.00321186
     atom    2 type  1   force =    -0.01687574   -0.00324817   -0.00243406
     atom    3 type  1   force =     0.00007796   -0.01320687   -0.00181963
     atom    4 type  1   force =     0.00015801   -0.01303628   -0.00229344
     atom    5 type  2   force =     0.00000000    0.00000000    0.00000000
     atom    6 type  2   force =     0.00000000    0.00000000    0.00000000
     atom    7 type  1   force =     0.00015018    0.00007427    0.00101372
     atom    8 type  1   force =     0.00012224    0.00012853    0.00091508
     atom    9 type  2   force =     0.00000000    0.00000000    0.00000000
     atom   10 type  2   force =     0.00000000    0.00000000    0.00000000
     atom   11 type  1   force =     0.00004874    0.00024704   -0.00128845
     atom   12 type  1   force =     0.00004166    0.00018800   -0.00130265
     atom   13 type  1   force =    -0.00005250   -0.00069538    0.00007227
     atom   14 type  1   force =    -0.00005747   -0.00069287    0.00009637
     atom   15 type  1   force =    -0.00000685    0.00081518   -0.00076926
     atom   16 type  1   force =     0.00007598    0.00063438   -0.00022921
     atom   17 type  2   force =     0.00000000    0.00000000    0.00000000
     atom   18 type  2   force =     0.00000000    0.00000000    0.00000000
     atom   19 type  1   force =     0.00004785    0.00002375   -0.00000202
     atom   20 type  1   force =    -0.00017773    0.00003623   -0.00000202
     atom   21 type  2   force =     0.00000000    0.00000000    0.00000000
     atom   22 type  2   force =     0.00000000    0.00000000    0.00000000
     atom   23 type  1   force =    -0.00000700   -0.00007345   -0.00000186
     atom   24 type  1   force =    -0.00013231   -0.00007678   -0.00000186
     atom   25 type  1   force =    -0.00000688    0.00081537    0.00076710
     atom   26 type  1   force =     0.00007594    0.00063458    0.00022697
     atom   27 type  1   force =    -0.00005250   -0.00069554   -0.00007455
     atom   28 type  1   force =    -0.00005747   -0.00069303   -0.00009864
     atom   29 type  2   force =     0.00000000    0.00000000    0.00000000
     atom   30 type  2   force =     0.00000000    0.00000000    0.00000000
     atom   31 type  1   force =     0.00015017    0.00007437   -0.00101555
     atom   32 type  1   force =     0.00012224    0.00012863   -0.00091692
     atom   33 type  2   force =     0.00000000    0.00000000    0.00000000
     atom   34 type  2   force =     0.00000000    0.00000000    0.00000000
     atom   35 type  1   force =     0.00004877    0.00024700    0.00128638
     atom   36 type  1   force =     0.00004171    0.00018795    0.00130058
     atom   37 type  1   force =     0.00007798   -0.01320875    0.00181587
     atom   38 type  1   force =     0.00015803   -0.01303811    0.00228972
     atom   39 type  1   force =    -0.01693742   -0.00279257    0.00320943
     atom   40 type  1   force =    -0.01687649   -0.00324821    0.00243152
     atom   41 type  3   force =     0.00000000    0.00000000    0.00000000
     atom   42 type  3   force =     0.00000000    0.00000000    0.00000000
     atom   43 type  3   force =     0.00000000    0.00000000    0.00000000
     atom   44 type  3   force =     0.00000000    0.00000000    0.00000000
     atom   45 type  3   force =     0.00000000    0.00000000    0.00000000
     atom   46 type  3   force =     0.00000000    0.00000000    0.00000000
     atom   47 type  3   force =     0.00000000    0.00000000    0.00000000
     atom   48 type  3   force =     0.00000000    0.00000000    0.00000000
     The Hubbard contrib.    to forces
     atom    1 type  1   force =     0.00000000    0.00000000    0.00000000
     atom    2 type  1   force =     0.00000000    0.00000000    0.00000000
     atom    3 type  1   force =     0.00000000    0.00000000    0.00000000
     atom    4 type  1   force =     0.00000000    0.00000000    0.00000000
     atom    5 type  2   force =     0.00000000    0.00000000    0.00000000
     atom    6 type  2   force =     0.00000000    0.00000000    0.00000000
     atom    7 type  1   force =     0.00000000    0.00000000    0.00000000
     atom    8 type  1   force =     0.00000000    0.00000000    0.00000000
     atom    9 type  2   force =     0.00000000    0.00000000    0.00000000
     atom   10 type  2   force =     0.00000000    0.00000000    0.00000000
     atom   11 type  1   force =     0.00000000    0.00000000    0.00000000
     atom   12 type  1   force =     0.00000000    0.00000000    0.00000000
     atom   13 type  1   force =     0.00000000    0.00000000    0.00000000
     atom   14 type  1   force =     0.00000000    0.00000000    0.00000000
     atom   15 type  1   force =     0.00000000    0.00000000    0.00000000
     atom   16 type  1   force =     0.00000000    0.00000000    0.00000000
     atom   17 type  2   force =     0.00000000    0.00000000    0.00000000
     atom   18 type  2   force =     0.00000000    0.00000000    0.00000000
     atom   19 type  1   force =     0.00000000    0.00000000    0.00000000
     atom   20 type  1   force =     0.00000000    0.00000000    0.00000000
     atom   21 type  2   force =     0.00000000    0.00000000    0.00000000
     atom   22 type  2   force =     0.00000000    0.00000000    0.00000000
     atom   23 type  1   force =     0.00000000    0.00000000    0.00000000
     atom   24 type  1   force =     0.00000000    0.00000000    0.00000000
     atom   25 type  1   force =     0.00000000    0.00000000    0.00000000
     atom   26 type  1   force =     0.00000000    0.00000000    0.00000000
     atom   27 type  1   force =     0.00000000    0.00000000    0.00000000
     atom   28 type  1   force =     0.00000000    0.00000000    0.00000000
     atom   29 type  2   force =     0.00000000    0.00000000    0.00000000
     atom   30 type  2   force =     0.00000000    0.00000000    0.00000000
     atom   31 type  1   force =     0.00000000    0.00000000    0.00000000
     atom   32 type  1   force =     0.00000000    0.00000000    0.00000000
     atom   33 type  2   force =     0.00000000    0.00000000    0.00000000
     atom   34 type  2   force =     0.00000000    0.00000000    0.00000000
     atom   35 type  1   force =     0.00000000    0.00000000    0.00000000
     atom   36 type  1   force =     0.00000000    0.00000000    0.00000000
     atom   37 type  1   force =     0.00000000    0.00000000    0.00000000
     atom   38 type  1   force =     0.00000000    0.00000000    0.00000000
     atom   39 type  1   force =     0.00000000    0.00000000    0.00000000
     atom   40 type  1   force =     0.00000000    0.00000000    0.00000000
     atom   41 type  3   force =     0.00000000    0.00000000    0.00000000
     atom   42 type  3   force =     0.00000000    0.00000000    0.00000000
     atom   43 type  3   force =     0.00000000    0.00000000    0.00000000
     atom   44 type  3   force =     0.00000000    0.00000000    0.00000000
     atom   45 type  3   force =     0.00000000    0.00000000    0.00000000
     atom   46 type  3   force =     0.00000000    0.00000000    0.00000000
     atom   47 type  3   force =     0.00000000    0.00000000    0.00000000
     atom   48 type  3   force =     0.00000000    0.00000000    0.00000000
     The SCF correction term to forces
     atom    1 type  1   force =     0.00000048    0.00000060    0.00000024
     atom    2 type  1   force =    -0.00000061   -0.00000029    0.00000028
     atom    3 type  1   force =     0.00000082   -0.00000041   -0.00000004
     atom    4 type  1   force =    -0.00000088    0.00000009   -0.00000021
     atom    5 type  2   force =    -0.00000046   -0.00000064   -0.00000069
     atom    6 type  2   force =     0.00000054   -0.00000068   -0.00000005
     atom    7 type  1   force =    -0.00000042    0.00000014   -0.00000030
     atom    8 type  1   force =     0.00000042    0.00000082    0.00000009
     atom    9 type  2   force =     0.00000082    0.00000086   -0.00000037
     atom   10 type  2   force =    -0.00000079    0.00000033    0.00000020
     atom   11 type  1   force =    -0.00000064    0.00000003   -0.00000020
     atom   12 type  1   force =     0.00000065   -0.00000059    0.00000005
     atom   13 type  1   force =     0.00000061   -0.00000024    0.00000011
     atom   14 type  1   force =    -0.00000065   -0.00000020   -0.00000060
     atom   15 type  1   force =    -0.00000030    0.00000019   -0.00000015
     atom   16 type  1   force =     0.00000042    0.00000015   -0.00000010
     atom   17 type  2   force =     0.00000027   -0.00000041   -0.00000013
     atom   18 type  2   force =     0.00000001   -0.00000042   -0.00000014
     atom   19 type  1   force =    -0.00000093    0.00000011   -0.00000005
     atom   20 type  1   force =     0.00000081    0.00000069   -0.00000005
     atom   21 type  2   force =    -0.00000147    0.00000057   -0.00000013
     atom   22 type  2   force =     0.00000108    0.00000050   -0.00000013
     atom   23 type  1   force =    -0.00000094   -0.00000031   -0.00000005
     atom   24 type  1   force =     0.00000083   -0.00000087   -0.00000005
     atom   25 type  1   force =    -0.00000030    0.00000018    0.00000006
     atom   26 type  1   force =     0.00000042    0.00000015    0.00000001
     atom   27 type  1   force =     0.00000062   -0.00000024   -0.00000018
     atom   28 type  1   force =    -0.00000065   -0.00000020    0.00000053
     atom   29 type  2   force =    -0.00000047   -0.00000064    0.00000062
     atom   30 type  2   force =     0.00000055   -0.00000068   -0.00000002
     atom   31 type  1   force =    -0.00000043    0.00000014    0.00000027
     atom   32 type  1   force =     0.00000043    0.00000082   -0.00000012
     atom   33 type  2   force =     0.00000083    0.00000086    0.00000031
     atom   34 type  2   force =    -0.00000079    0.00000034   -0.00000027
     atom   35 type  1   force =    -0.00000064    0.00000003    0.00000018
     atom   36 type  1   force =     0.00000065   -0.00000059   -0.00000007
     atom   37 type  1   force =     0.00000082   -0.00000041    0.00000005
     atom   38 type  1   force =    -0.00000088    0.00000009    0.00000023
     atom   39 type  1   force =     0.00000048    0.00000060   -0.00000021
     atom   40 type  1   force =    -0.00000061   -0.00000029   -0.00000025
     atom   41 type  3   force =    -0.00000004    0.00000004    0.00000005
     atom   42 type  3   force =    -0.00000004    0.00000004   -0.00000004
     atom   43 type  3   force =     0.00000001   -0.00000000    0.00000000
     atom   44 type  3   force =     0.00000002   -0.00000000    0.00000001
     atom   45 type  3   force =     0.00000009    0.00000003   -0.00000001
     atom   46 type  3   force =     0.00000009    0.00000003    0.00000002
     atom   47 type  3   force =    -0.00000009   -0.00000000   -0.00000001
     atom   48 type  3   force =    -0.00000009   -0.00000000    0.00000002

     Total force =     0.002757     Total SCF correction =     0.000006
     Energy error            =      1.6E-05 Ry
     Gradient error          =      6.1E-04 Ry/Bohr

     number of scf cycles    =  37
     number of bfgs steps    =  36

     energy             old  =   -3437.8721401505 Ry
     energy             new  =   -3437.8721565498 Ry

     CASE: energy            _new < energy            _old

     new trust radius        =       0.0042668767 bohr
     new conv_thr            =            1.0E-11 Ry


ATOMIC_POSITIONS (crystal)
O            -0.0039542600        0.4440660232        0.2682058065
O             0.4905137412        0.4415804904        0.2689694092
O            -0.0016591854        0.0177783460        0.3006467654
O             0.4978904999        0.0187689360        0.3006140295
Ru            0.2484356358        0.0009745341        0.3581321154
Ru            0.7483024437        0.0009154483        0.3580301077
O             0.2494847257        0.3099577058        0.3610810213
O             0.7496643955        0.3103323724        0.3606865405
Ru           -0.0009017383        0.5001900082        0.3561057226
Ru            0.4986001181        0.5000201422        0.3571667313
O             0.2497223199        0.6917368404        0.3522172762
O             0.7487500309        0.6913044082        0.3519350424
O            -0.0016247442       -0.0034919429        0.4112383527
O             0.4987242659       -0.0034319106        0.4111940463
O             0.0028053328        0.5125774899        0.4436374014
O             0.5031896924        0.5111877795        0.4452568763
Ru            0.0003169137        0.0070254553        0.5000010000
Ru            0.5003136820        0.0070015215        0.5000010000
O             0.2495919271        0.1975970758        0.5000010000
O             0.7504211998        0.1976082080        0.5000010000
Ru            0.2497770116        0.5081716467        0.5000010000
Ru            0.7535863092        0.5082372511        0.5000010000
O             0.2500927403        0.8184805347        0.5000010000
O             0.7504270607        0.8185182288        0.5000010000
O             0.0028053328        0.5125774899        0.5563635986
O             0.5031896924        0.5111877795        0.5547441237
O            -0.0016247442       -0.0034919429        0.5887626473
O             0.4987242659       -0.0034319106        0.5888069537
Ru            0.2484356358        0.0009745341        0.6418688846
Ru            0.7483024437        0.0009154483        0.6419708923
O             0.2494847257        0.3099577058        0.6389199787
O             0.7496643955        0.3103323724        0.6393144595
Ru           -0.0009017383        0.5001900082        0.6438952774
Ru            0.4986001181        0.5000201422        0.6428342687
O             0.2497223199        0.6917368404        0.6477837238
O             0.7487500309        0.6913044082        0.6480659576
O            -0.0016591854        0.0177783460        0.6993552346
O             0.4978904999        0.0187689360        0.6993879705
O            -0.0039542600        0.4440660232        0.7317951935
O             0.4905137412        0.4415804904        0.7310315908
H             0.1355822785        0.4680146757        0.2512577894
H             0.1355822785        0.4680146757        0.7487422106
H             0.6268061538        0.4694319055        0.2505100174
H             0.6268061538        0.4694319055        0.7494899826
H            -0.0030009375        0.1559821583        0.2774529269
H            -0.0030009375        0.1559821583        0.7225470731
H             0.4956758090        0.1592176284        0.2781889332
H             0.4956758090        0.1592176284        0.7218110668



     Writing config-only to output data dir /storage/home/mgm6007/ixd4/Maria/Strain0_Files/RuO2-110-0-0123/RuO2-110-0-0123.save/
     NEW-OLD atomic charge density approx. for the potential

     Check: negative core charge=   -0.000001

     negative rho (up, down):  1.444E-04 0.000E+00

     add environment contribution to local potential
     Polarization accuracy = 1.8E-12, # of iterations =  43

     total cpu time spent up to now is   206479.4 secs

     per-process dynamical memory:   224.5 Mb

     Self-consistent Calculation

     iteration #  1     ecut=    50.00 Ry     beta= 0.70
     Davidson diagonalization with overlap
     ethr =  1.00E-06,  avg # of iterations =  2.0

     Threshold (ethr) on eigenvalues was too large:
     Diagonalizing with lowered threshold

     Davidson diagonalization with overlap
     ethr =  2.60E-09,  avg # of iterations =  4.0

     negative rho (up, down):  1.538E-04 0.000E+00

     add environment contribution to local potential
     Polarization accuracy = 2.3E-12, # of iterations =  43

     total cpu time spent up to now is   206765.6 secs

     total energy              =   -3437.87216856 Ry
     estimated scf accuracy    <       0.00001205 Ry
     electrostatic embedding   =      -0.02336923 Ry
     cavitation energy         =       0.02129165 Ry
     PV energy                 =      -0.08271021 Ry
     correction to one-el term =     191.97953793 Ry

     iteration #  2     ecut=    50.00 Ry     beta= 0.70
     Davidson diagonalization with overlap
     ethr =  3.27E-09,  avg # of iterations =  2.0

     negative rho (up, down):  1.568E-04 0.000E+00

     add environment contribution to local potential
     Polarization accuracy = 2.5E-12, # of iterations =  43

     total cpu time spent up to now is   207051.7 secs

     total energy              =   -3437.87216870 Ry
     estimated scf accuracy    <       0.00001249 Ry
     electrostatic embedding   =      -0.02337563 Ry
     cavitation energy         =       0.02129445 Ry
     PV energy                 =      -0.08270916 Ry
     correction to one-el term =     191.98102879 Ry

     iteration #  3     ecut=    50.00 Ry     beta= 0.70
     Davidson diagonalization with overlap
     ethr =  3.27E-09,  avg # of iterations =  1.0

     negative rho (up, down):  1.632E-04 0.000E+00

     add environment contribution to local potential
     Polarization accuracy = 2.7E-12, # of iterations =  43

     total cpu time spent up to now is   207300.6 secs

     total energy              =   -3437.87216904 Ry
     estimated scf accuracy    <       0.00000440 Ry
     electrostatic embedding   =      -0.02337814 Ry
     cavitation energy         =       0.02129520 Ry
     PV energy                 =      -0.08270898 Ry
     correction to one-el term =     191.98184697 Ry

     iteration #  4     ecut=    50.00 Ry     beta= 0.70
     Davidson diagonalization with overlap
     ethr =  1.20E-09,  avg # of iterations =  1.0

     negative rho (up, down):  1.642E-04 0.000E+00

     add environment contribution to local potential
