
     Program PWSCF v.7.2 starts on 18Jul2023 at 16:10:56 
        Git branch: heads/qe-7.2
        Last git commit: b4c5e8deeb7d1863e7553a87b45f8d22c21926a5
        Last git commit date: Mon Mar 27 16:12:09 2023 +0000
        Last git commit subject: Merge branch 'merge_fix_hubbard' into 'develop'

     This program is part of the open-source Quantum ESPRESSO suite
     for quantum simulation of materials; please cite
         "P. Giannozzi et al., J. Phys.:Condens. Matter 21 395502 (2009);
         "P. Giannozzi et al., J. Phys.:Condens. Matter 29 465901 (2017);
         "P. Giannozzi et al., J. Chem. Phys. 152 154105 (2020);
          URL http://www.quantum-espresso.org", 
     in publications or presentations arising from this work. More details at
     http://www.quantum-espresso.org/quote

     Parallel version (MPI), running on    20 processors

     MPI processes distributed on     1 nodes
     105766 MiB available memory on the printing compute node when the environment starts
 
     Reading input from RuO2-110-0-0123.in

     Current dimensions of program PWSCF are:
     Max number of different atomic species (ntypx) = 10
     Max number of k-points (npk) =  40000
     Max angular momentum in pseudopotentials (lmaxx) =  4
 
     Reading input from environ.in:
     * Environ restarting
     * setting up water environment
     * using electronic solvent mode
     * setting boundary derivatives method to SCCS default
     

     File /storage/home/mgm6007/ixd4/Maria/Strain1_Files/RuO2-110-0-0123/RuO2-110-0-0123.update deleted, as requested

     File /storage/home/mgm6007/ixd4/Maria/Strain1_Files/RuO2-110-0-0123/RuO2-110-0-0123.bfgs deleted, as requested
     file O.pbe-n-kjpaw_psl.0.1.UPF: wavefunction(s)  2P renormalized
     Found identity + (  0.5000  0.0000  0.0000) symmetry
     This is a supercell, fractional translations are disabled
     Message from routine setup:
     using ibrav=0 with symmetry is DISCOURAGED, use correct ibrav instead
 
     R & G space division:  proc/nbgrp/npool/nimage =      20
     Subspace diagonalization in iterative solution of the eigenvalue problem:
     one sub-group per band group will be used
     scalapack distributed-memory algorithm (size of sub-group:  2*  2 procs)

 
     Parallelization info
     --------------------
     sticks:   dense  smooth     PW     G-vecs:    dense   smooth      PW
     Min         276     110     29                54830    13868    1873
     Max         277     111     30                54841    13883    1882
     Sum        5527    2209    585              1096679   277485   37533
 
     Using Slab Decomposition
 


     bravais-lattice index     =            0
     lattice parameter (alat)  =      12.3893  a.u.
     unit-cell volume          =    5808.5831 (a.u.)^3
     number of atoms/cell      =           48
     number of atomic types    =            3
     number of electrons       =       368.00
     number of Kohn-Sham states=          221
     kinetic-energy cutoff     =      50.0000  Ry
     charge density cutoff     =     500.0000  Ry
     scf convergence threshold =      1.0E-09
     mixing beta               =       0.7000
     number of iterations used =            8  local-TF  mixing
     energy convergence thresh.=      1.0E-04
     force convergence thresh. =      1.0E-04
     Exchange-correlation= PBE
                           (   1   4   3   4   0   0   0)
     nstep                     =          200


     ================================================================================
 
                                  Environ Setup Summary

     ================================================================================
 
     Please cite

          O. Andreussi, I. Dabo and N. Marzari, J. Chem. Phys. 136, 064102 (2012)

     in publications or presentations arising from this work.

     ================================================================================
 
     Parameters
     ==========

     compensation onset threshold      =               0.1000E+00
     static permittivity               =                    78.30
     surface tension in input (dyn/cm) =                    47.90
     surface tension in internal units =               0.6153E-04
     external pressure in input (GPa)  =                    -0.36
     external pressure in inter. units =              -0.2447E-04

     Solvent Boundary
     ================

     solvent mode                      =               electronic
     derivatives method                =                    chain
     numerical core for derivatives    =                      fft
     switching function adopted        =                     SCCS
     density limit for vacuum region   =               0.5000E-02
     density limit for bulk solvent    =               0.1000E-03

     Electrostatic Setup
     ===================

     electrostatic problem to solve    =              generalized
     numerical solver adopted          =                       cg
     type of auxiliary density adopted =                     none
     numerical core for poisson        =                      fft
     type of pbc corrections           =                parabolic
     numerical core for corrections    =                      1da

     ================================================================================
 

     celldm(1)=  12.389316  celldm(2)=   0.000000  celldm(3)=   0.000000
     celldm(4)=   0.000000  celldm(5)=   0.000000  celldm(6)=   0.000000

     crystal axes: (cart. coord. in units of alat)
               a(1) = (   1.000000   0.000000   0.000000 )  
               a(2) = (   0.000000   0.904766   0.000000 )  
               a(3) = (   0.000000   0.000000   3.375918 )  

     reciprocal axes: (cart. coord. in units 2 pi/alat)
               b(1) = (  1.000000  0.000000  0.000000 )  
               b(2) = (  0.000000  1.105258  0.000000 )  
               b(3) = (  0.000000  0.000000  0.296216 )  


     PseudoPot. # 1 for O  read from file:
     /gpfs/group/ixd4/default/Simon/pseudopotentials/materialscloud/SSSP_1.3.0_PBE_efficiency/O.pbe-n-kjpaw_psl.0.1.UPF
     MD5 check sum: 0234752ac141de4415c5fc33072bef88
     Pseudo is Projector augmented-wave + core cor, Zval =  6.0
     Generated using "atomic" code by A. Dal Corso  v.5.0.99 svn rev. 10869
     Shape of augmentation charge: BESSEL
     Using radial grid of 1095 points,  4 beta functions with: 
                l(1) =   0
                l(2) =   0
                l(3) =   1
                l(4) =   1
     Q(r) pseudized with 0 coefficients 


     PseudoPot. # 2 for Ru read from file:
     /gpfs/group/ixd4/default/Simon/pseudopotentials/materialscloud/SSSP_1.3.0_PBE_efficiency/Ru_ONCV_PBE-1.0.oncvpsp.upf
     MD5 check sum: be037bb81c227cfb9b1461a9f099f4bd
     Pseudo is Norm-conserving, Zval = 16.0
     Generated using ONCVPSP code by D. R. Hamann
     Using radial grid of 1458 points,  6 beta functions with: 
                l(1) =   0
                l(2) =   0
                l(3) =   1
                l(4) =   1
                l(5) =   2
                l(6) =   2

     PseudoPot. # 3 for H  read from file:
     /gpfs/group/ixd4/default/Simon/pseudopotentials/materialscloud/SSSP_1.3.0_PBE_efficiency/H.pbe-rrkjus_psl.1.0.0.UPF
     MD5 check sum: f52b6d4d1c606e5624b1dc7b2218f220
     Pseudo is Ultrasoft, Zval =  1.0
     Generated using "atomic" code by A. Dal Corso  v.5.1
     Using radial grid of  929 points,  2 beta functions with: 
                l(1) =   0
                l(2) =   0
     Q(r) pseudized with 0 coefficients 


     atomic species   valence    mass     pseudopotential
        O              6.00    15.99940     O ( 1.00)
        Ru            16.00   101.07000     Ru( 1.00)
        H              1.00     1.00794     H ( 1.00)

      2 Sym. Ops. (no inversion) found



   Cartesian axes

     site n.     atom                  positions (alat units)
         1           O   tau(   1) = (  -0.0051969   0.3986864   0.9044289  )
         2           O   tau(   2) = (   0.4947988   0.3986866   0.9044307  )
         3           O   tau(   3) = (  -0.0036039   0.0109969   1.0191428  )
         4           O   tau(   4) = (   0.4963959   0.0109976   1.0191428  )
         5           Ru  tau(   5) = (   0.2462965   0.0006144   1.2106191  )
         6           Ru  tau(   6) = (   0.7462967   0.0006147   1.2106188  )
         7           O   tau(   7) = (   0.2521299   0.2849512   1.2200133  )
         8           O   tau(   8) = (   0.7521296   0.2849513   1.2200123  )
         9           Ru  tau(   9) = (   0.0016267   0.4532135   1.2032808  )
        10           Ru  tau(  10) = (   0.5016268   0.4532136   1.2032788  )
        11           O   tau(  11) = (   0.2526278   0.6220166   1.1851202  )
        12           O   tau(  12) = (   0.7526276   0.6220168   1.1851202  )
        13           O   tau(  13) = (  -0.0031099  -0.0026152   1.3878664  )
        14           O   tau(  14) = (   0.4968903  -0.0026166   1.3878667  )
        15           O   tau(  15) = (   0.0053781   0.4643545   1.5026524  )
        16           O   tau(  16) = (   0.5053778   0.4643551   1.5026477  )
        17           Ru  tau(  17) = (  -0.0033331   0.0077619   1.6879622  )
        18           Ru  tau(  18) = (   0.4966669   0.0077619   1.6879622  )
        19           O   tau(  19) = (   0.2452694   0.1768708   1.6879622  )
        20           O   tau(  20) = (   0.7452692   0.1768709   1.6879622  )
        21           Ru  tau(  21) = (   0.2568248   0.4612100   1.6879622  )
        22           Ru  tau(  22) = (   0.7568227   0.4612100   1.6879622  )
        23           O   tau(  23) = (   0.2456811   0.7453744   1.6879622  )
        24           O   tau(  24) = (   0.7456803   0.7453742   1.6879622  )
        25           O   tau(  25) = (   0.0053781   0.4643545   1.8732685  )
        26           O   tau(  26) = (   0.5053778   0.4643551   1.8732732  )
        27           O   tau(  27) = (  -0.0031099  -0.0026152   1.9880545  )
        28           O   tau(  28) = (   0.4968903  -0.0026166   1.9880542  )
        29           Ru  tau(  29) = (   0.2462965   0.0006144   2.1653019  )
        30           Ru  tau(  30) = (   0.7462967   0.0006147   2.1653021  )
        31           O   tau(  31) = (   0.2521299   0.2849512   2.1559077  )
        32           O   tau(  32) = (   0.7521296   0.2849513   2.1559086  )
        33           Ru  tau(  33) = (   0.0016267   0.4532135   2.1726402  )
        34           Ru  tau(  34) = (   0.5016268   0.4532136   2.1726421  )
        35           O   tau(  35) = (   0.2526278   0.6220166   2.1908008  )
        36           O   tau(  36) = (   0.7526276   0.6220168   2.1908007  )
        37           O   tau(  37) = (  -0.0036039   0.0109969   2.3567815  )
        38           O   tau(  38) = (   0.4963959   0.0109976   2.3567815  )
        39           O   tau(  39) = (  -0.0051969   0.3986864   2.4714921  )
        40           O   tau(  40) = (   0.4947988   0.3986866   2.4714902  )
        41           H   tau(  41) = (   0.1284031   0.4257609   0.8435493  )
        42           H   tau(  42) = (   0.1284031   0.4257609   2.5323683  )
        43           H   tau(  43) = (   0.6284036   0.4257622   0.8435486  )
        44           H   tau(  44) = (   0.6284036   0.4257622   2.5323690  )
        45           H   tau(  45) = (  -0.0041340   0.1426240   0.9391009  )
        46           H   tau(  46) = (  -0.0041340   0.1426240   2.4368167  )
        47           H   tau(  47) = (   0.4958648   0.1426242   0.9391007  )
        48           H   tau(  48) = (   0.4958648   0.1426242   2.4368168  )

     number of k points=     2  Marzari-Vanderbilt smearing, width (Ry)=  0.0300
                       cart. coord. in units 2pi/alat
        k(    1) = (   0.2500000   0.2763144   0.0000000), wk =   1.0000000
        k(    2) = (  -0.2500000   0.2763144   0.0000000), wk =   1.0000000

     Dense  grid:  1096679 G-vectors     FFT dimensions: (  90,  80, 300)

     Smooth grid:   277485 G-vectors     FFT dimensions: (  60,  54, 192)

     Estimated max dynamical RAM per process >     179.98 MB

     Estimated total dynamical RAM >       3.52 GB

     Check: negative core charge=   -0.000001

     Initial potential from superposition of free atoms

     starting charge     367.9933, renormalised to     368.0000

     add environment contribution to local potential
     Polarization accuracy = 9.6E-12, # of iterations =  22

     negative rho (up, down):  2.721E-05 0.000E+00
     Starting wfcs are  240 randomized atomic wfcs
     Checking if some PAW data can be deallocated... 

     total cpu time spent up to now is     2312.8 secs

     per-process dynamical memory:   150.1 Mb

     Self-consistent Calculation

     iteration #  1     ecut=    50.00 Ry     beta= 0.70
     Davidson diagonalization with overlap
     ethr =  1.00E-02,  avg # of iterations =  3.0

     total cpu time spent up to now is     2893.1 secs

     total energy              =   -3435.54258003 Ry
     estimated scf accuracy    <       8.72614307 Ry
     electrostatic embedding   =      -0.00182464 Ry
     cavitation energy         =       0.01948300 Ry
     PV energy                 =      -0.08477687 Ry
     correction to one-el term =     224.30229897 Ry

     iteration #  2     ecut=    50.00 Ry     beta= 0.70
     Davidson diagonalization with overlap
     ethr =  2.37E-03,  avg # of iterations =  2.0

     total cpu time spent up to now is     3455.5 secs

     total energy              =   -3437.55512031 Ry
     estimated scf accuracy    <       1.11293305 Ry
     electrostatic embedding   =      -0.00272928 Ry
     cavitation energy         =       0.01935512 Ry
     PV energy                 =      -0.08546350 Ry
     correction to one-el term =     224.30519898 Ry

     iteration #  3     ecut=    50.00 Ry     beta= 0.70
     Davidson diagonalization with overlap
     ethr =  3.02E-04,  avg # of iterations =  5.0

     total cpu time spent up to now is     4126.9 secs

     total energy              =   -3437.68286602 Ry
     estimated scf accuracy    <       0.19167131 Ry
     electrostatic embedding   =      -0.00297615 Ry
     cavitation energy         =       0.01947125 Ry
     PV energy                 =      -0.08514415 Ry
     correction to one-el term =     224.30565898 Ry

     iteration #  4     ecut=    50.00 Ry     beta= 0.70
     Davidson diagonalization with overlap
     ethr =  5.21E-05,  avg # of iterations =  1.0

     total cpu time spent up to now is     4794.2 secs

     total energy              =   -3437.67691866 Ry
     estimated scf accuracy    <       0.10229047 Ry
     electrostatic embedding   =      -0.00307868 Ry
     cavitation energy         =       0.01968258 Ry
     PV energy                 =      -0.08440423 Ry
     correction to one-el term =     224.30558328 Ry

     iteration #  5     ecut=    50.00 Ry     beta= 0.70
     Davidson diagonalization with overlap
     ethr =  2.78E-05,  avg # of iterations =  5.0

     total cpu time spent up to now is     5212.1 secs

     total energy              =   -3437.67749779 Ry
     estimated scf accuracy    <       0.12547820 Ry
     electrostatic embedding   =      -0.00307765 Ry
     cavitation energy         =       0.02009637 Ry
     PV energy                 =      -0.08330973 Ry
     correction to one-el term =     224.30512931 Ry

     iteration #  6     ecut=    50.00 Ry     beta= 0.70
     Davidson diagonalization with overlap
     ethr =  2.78E-05,  avg # of iterations =  1.0

     add environment contribution to local potential
     Polarization accuracy = 6.0E-12, # of iterations =  33

     total cpu time spent up to now is     5784.0 secs

     total energy              =   -3437.67718543 Ry
     estimated scf accuracy    <       0.05982025 Ry
     electrostatic embedding   =      -0.00299359 Ry
     cavitation energy         =       0.02045627 Ry
     PV energy                 =      -0.08246427 Ry
     correction to one-el term =     224.30456796 Ry

     iteration #  7     ecut=    50.00 Ry     beta= 0.70
     Davidson diagonalization with overlap
     ethr =  1.63E-05,  avg # of iterations =  8.0

     add environment contribution to local potential
     Polarization accuracy = 2.8E-12, # of iterations =  38

     total cpu time spent up to now is     6245.3 secs

     total energy              =   -3437.68756867 Ry
     estimated scf accuracy    <       0.05067381 Ry
     electrostatic embedding   =      -0.02656912 Ry
     cavitation energy         =       0.02058010 Ry
     PV energy                 =      -0.08213383 Ry
     correction to one-el term =     195.14431058 Ry

     iteration #  8     ecut=    50.00 Ry     beta= 0.70
     Davidson diagonalization with overlap
     ethr =  1.38E-05,  avg # of iterations =  6.0

     add environment contribution to local potential
     Polarization accuracy = 4.5E-12, # of iterations =  44

     total cpu time spent up to now is     6910.5 secs

     total energy              =   -3437.68366332 Ry
     estimated scf accuracy    <       0.04515297 Ry
     electrostatic embedding   =      -0.03066183 Ry
     cavitation energy         =       0.02097372 Ry
     PV energy                 =      -0.08128403 Ry
     correction to one-el term =     192.46136325 Ry

     iteration #  9     ecut=    50.00 Ry     beta= 0.70
     Davidson diagonalization with overlap
     ethr =  1.23E-05,  avg # of iterations =  6.0

     negative rho (up, down):  9.784E-04 0.000E+00

     add environment contribution to local potential
     Polarization accuracy = 9.0E-12, # of iterations =  47

     total cpu time spent up to now is     7445.9 secs

     total energy              =   -3437.68392003 Ry
     estimated scf accuracy    <       0.02096882 Ry
     electrostatic embedding   =      -0.03897749 Ry
     cavitation energy         =       0.02145277 Ry
     PV energy                 =      -0.08041383 Ry
     correction to one-el term =     189.71777011 Ry

     iteration # 10     ecut=    50.00 Ry     beta= 0.70
     Davidson diagonalization with overlap
     ethr =  5.70E-06,  avg # of iterations =  3.0

     negative rho (up, down):  1.264E-05 0.000E+00

     add environment contribution to local potential
     Polarization accuracy = 5.7E-12, # of iterations =  43

     total cpu time spent up to now is     8110.7 secs

     total energy              =   -3437.68536011 Ry
     estimated scf accuracy    <       0.00882931 Ry
     electrostatic embedding   =      -0.03960236 Ry
     cavitation energy         =       0.02143838 Ry
     PV energy                 =      -0.08020147 Ry
     correction to one-el term =     189.99165231 Ry

     iteration # 11     ecut=    50.00 Ry     beta= 0.70
     Davidson diagonalization with overlap
     ethr =  2.40E-06,  avg # of iterations =  9.0

     add environment contribution to local potential
     Polarization accuracy = 4.8E-12, # of iterations =  43

     total cpu time spent up to now is     8563.0 secs

     total energy              =   -3437.68675809 Ry
     estimated scf accuracy    <       0.00508309 Ry
     electrostatic embedding   =      -0.03477666 Ry
     cavitation energy         =       0.02113789 Ry
     PV energy                 =      -0.08049522 Ry
     correction to one-el term =     191.91035617 Ry

     iteration # 12     ecut=    50.00 Ry     beta= 0.70
     Davidson diagonalization with overlap
     ethr =  1.38E-06,  avg # of iterations =  6.0

     add environment contribution to local potential
     Polarization accuracy = 2.2E-12, # of iterations =  42

     total cpu time spent up to now is     9121.5 secs

     total energy              =   -3437.68790180 Ry
     estimated scf accuracy    <       0.00233423 Ry
     electrostatic embedding   =      -0.03129776 Ry
     cavitation energy         =       0.02097532 Ry
     PV energy                 =      -0.08064705 Ry
     correction to one-el term =     193.30101395 Ry

     iteration # 13     ecut=    50.00 Ry     beta= 0.70
     Davidson diagonalization with overlap
     ethr =  6.34E-07,  avg # of iterations =  7.0

     add environment contribution to local potential
     Polarization accuracy = 4.6E-12, # of iterations =  40

     total cpu time spent up to now is     9775.7 secs

     total energy              =   -3437.68885505 Ry
     estimated scf accuracy    <       0.00117270 Ry
     electrostatic embedding   =      -0.02795472 Ry
     cavitation energy         =       0.02085171 Ry
     PV energy                 =      -0.08077745 Ry
     correction to one-el term =     194.66713556 Ry

     iteration # 14     ecut=    50.00 Ry     beta= 0.70
     Davidson diagonalization with overlap
     ethr =  3.19E-07,  avg # of iterations =  6.0

     negative rho (up, down):  8.341E-08 0.000E+00

     add environment contribution to local potential
     Polarization accuracy = 3.6E-12, # of iterations =  41

     total cpu time spent up to now is    10322.4 secs

     total energy              =   -3437.68936629 Ry
     estimated scf accuracy    <       0.00038738 Ry
     electrostatic embedding   =      -0.02590645 Ry
     cavitation energy         =       0.02076594 Ry
     PV energy                 =      -0.08089288 Ry
     correction to one-el term =     195.70070043 Ry

     iteration # 15     ecut=    50.00 Ry     beta= 0.70
     Davidson diagonalization with overlap
     ethr =  1.05E-07,  avg # of iterations =  7.0

     negative rho (up, down):  4.859E-08 0.000E+00

     add environment contribution to local potential
     Polarization accuracy = 7.1E-12, # of iterations =  39

     total cpu time spent up to now is    11011.6 secs

     total energy              =   -3437.68965138 Ry
     estimated scf accuracy    <       0.00007754 Ry
     electrostatic embedding   =      -0.02436911 Ry
     cavitation energy         =       0.02072624 Ry
     PV energy                 =      -0.08093524 Ry
     correction to one-el term =     196.60258969 Ry

     iteration # 16     ecut=    50.00 Ry     beta= 0.70
     Davidson diagonalization with overlap
     ethr =  2.11E-08,  avg # of iterations =  7.0

     negative rho (up, down):  1.791E-07 0.000E+00

     add environment contribution to local potential
     Polarization accuracy = 8.6E-12, # of iterations =  39

     total cpu time spent up to now is    11657.8 secs

     total energy              =   -3437.68970250 Ry
     estimated scf accuracy    <       0.00007040 Ry
     electrostatic embedding   =      -0.02380858 Ry
     cavitation energy         =       0.02072225 Ry
     PV energy                 =      -0.08095878 Ry
     correction to one-el term =     196.96296059 Ry

     iteration # 17     ecut=    50.00 Ry     beta= 0.70
     Davidson diagonalization with overlap
     ethr =  1.91E-08,  avg # of iterations =  6.0

     negative rho (up, down):  7.636E-06 0.000E+00

     add environment contribution to local potential
     Polarization accuracy = 9.2E-12, # of iterations =  40

     total cpu time spent up to now is    12290.9 secs

     total energy              =   -3437.68972004 Ry
     estimated scf accuracy    <       0.00001145 Ry
     electrostatic embedding   =      -0.02364098 Ry
     cavitation energy         =       0.02072499 Ry
     PV energy                 =      -0.08096600 Ry
     correction to one-el term =     197.08264078 Ry

     iteration # 18     ecut=    50.00 Ry     beta= 0.70
     Davidson diagonalization with overlap
     ethr =  3.11E-09,  avg # of iterations =  3.0

     negative rho (up, down):  1.899E-05 0.000E+00

     add environment contribution to local potential
     Polarization accuracy = 9.6E-12, # of iterations =  40

     total cpu time spent up to now is    12865.4 secs

     total energy              =   -3437.68972466 Ry
     estimated scf accuracy    <       0.00000442 Ry
     electrostatic embedding   =      -0.02353924 Ry
     cavitation energy         =       0.02072573 Ry
     PV energy                 =      -0.08097519 Ry
     correction to one-el term =     197.17808839 Ry

     iteration # 19     ecut=    50.00 Ry     beta= 0.70
     Davidson diagonalization with overlap
     ethr =  1.20E-09,  avg # of iterations =  4.0

     negative rho (up, down):  9.643E-05 0.000E+00

     add environment contribution to local potential
     Polarization accuracy = 7.8E-12, # of iterations =  39

     total cpu time spent up to now is    13420.4 secs

     total energy              =   -3437.68972676 Ry
     estimated scf accuracy    <       0.00000260 Ry
     electrostatic embedding   =      -0.02353639 Ry
     cavitation energy         =       0.02072574 Ry
     PV energy                 =      -0.08097696 Ry
     correction to one-el term =     197.20317727 Ry

     iteration # 20     ecut=    50.00 Ry     beta= 0.70
     Davidson diagonalization with overlap
     ethr =  7.07E-10,  avg # of iterations =  3.5

     negative rho (up, down):  9.939E-05 0.000E+00

     add environment contribution to local potential
     Polarization accuracy = 9.2E-12, # of iterations =  40

     total cpu time spent up to now is    13857.1 secs

     total energy              =   -3437.68972763 Ry
     estimated scf accuracy    <       0.00000046 Ry
     electrostatic embedding   =      -0.02347654 Ry
     cavitation energy         =       0.02072142 Ry
     PV energy                 =      -0.08098410 Ry
     correction to one-el term =     197.25860114 Ry

     iteration # 21     ecut=    50.00 Ry     beta= 0.70
     Davidson diagonalization with overlap
     ethr =  1.26E-10,  avg # of iterations =  2.0

     negative rho (up, down):  1.172E-04 0.000E+00

     add environment contribution to local potential
     Polarization accuracy = 9.1E-12, # of iterations =  40

     total cpu time spent up to now is    14046.5 secs

     total energy              =   -3437.68972781 Ry
     estimated scf accuracy    <       0.00000048 Ry
     electrostatic embedding   =      -0.02348784 Ry
     cavitation energy         =       0.02072035 Ry
     PV energy                 =      -0.08098469 Ry
     correction to one-el term =     197.26304477 Ry

     iteration # 22     ecut=    50.00 Ry     beta= 0.70
     Davidson diagonalization with overlap
     ethr =  1.26E-10,  avg # of iterations =  1.0

     negative rho (up, down):  1.275E-04 0.000E+00

     add environment contribution to local potential
     Polarization accuracy = 7.5E-12, # of iterations =  39

     total cpu time spent up to now is    14199.4 secs

     total energy              =   -3437.68972799 Ry
     estimated scf accuracy    <       0.00000017 Ry
     electrostatic embedding   =      -0.02348864 Ry
     cavitation energy         =       0.02071897 Ry
     PV energy                 =      -0.08098498 Ry
     correction to one-el term =     197.26705009 Ry

     iteration # 23     ecut=    50.00 Ry     beta= 0.70
     Davidson diagonalization with overlap
     ethr =  4.53E-11,  avg # of iterations =  1.0

     negative rho (up, down):  1.365E-04 0.000E+00

     add environment contribution to local potential
     Polarization accuracy = 7.9E-12, # of iterations =  39

     total cpu time spent up to now is    14361.8 secs

     total energy              =   -3437.68972825 Ry
     estimated scf accuracy    <       0.00000018 Ry
     electrostatic embedding   =      -0.02349432 Ry
     cavitation energy         =       0.02071838 Ry
     PV energy                 =      -0.08098438 Ry
     correction to one-el term =     197.26626631 Ry

     iteration # 24     ecut=    50.00 Ry     beta= 0.70
     Davidson diagonalization with overlap
     ethr =  4.53E-11,  avg # of iterations =  1.0

     negative rho (up, down):  1.413E-04 0.000E+00

     add environment contribution to local potential
     Polarization accuracy = 7.4E-12, # of iterations =  39

     total cpu time spent up to now is    14502.5 secs

     total energy              =   -3437.68972844 Ry
     estimated scf accuracy    <       0.00000011 Ry
     electrostatic embedding   =      -0.02349605 Ry
     cavitation energy         =       0.02071829 Ry
     PV energy                 =      -0.08098398 Ry
     correction to one-el term =     197.26610641 Ry

     iteration # 25     ecut=    50.00 Ry     beta= 0.70
     Davidson diagonalization with overlap
     ethr =  2.94E-11,  avg # of iterations =  1.0

     negative rho (up, down):  1.469E-04 0.000E+00

     add environment contribution to local potential
     Polarization accuracy = 8.6E-12, # of iterations =  40

     total cpu time spent up to now is    14664.2 secs

     total energy              =   -3437.68972861 Ry
     estimated scf accuracy    <       0.00000009 Ry
     electrostatic embedding   =      -0.02349700 Ry
     cavitation energy         =       0.02071846 Ry
     PV energy                 =      -0.08098382 Ry
     correction to one-el term =     197.26653144 Ry

     iteration # 26     ecut=    50.00 Ry     beta= 0.70
     Davidson diagonalization with overlap
     ethr =  2.31E-11,  avg # of iterations =  1.0

     negative rho (up, down):  1.449E-04 0.000E+00

     add environment contribution to local potential
     Polarization accuracy = 8.4E-12, # of iterations =  40

     total cpu time spent up to now is    14817.3 secs

     total energy              =   -3437.68972899 Ry
     estimated scf accuracy    <       0.00000008 Ry
     electrostatic embedding   =      -0.02349942 Ry
     cavitation energy         =       0.02071854 Ry
     PV energy                 =      -0.08098328 Ry
     correction to one-el term =     197.26551185 Ry

     iteration # 27     ecut=    50.00 Ry     beta= 0.70
     Davidson diagonalization with overlap
     ethr =  2.08E-11,  avg # of iterations =  1.0

     negative rho (up, down):  1.453E-04 0.000E+00

     add environment contribution to local potential
     Polarization accuracy = 6.9E-12, # of iterations =  39

     total cpu time spent up to now is    14965.5 secs

     total energy              =   -3437.68972928 Ry
     estimated scf accuracy    <       0.00000008 Ry
     electrostatic embedding   =      -0.02350011 Ry
     cavitation energy         =       0.02071881 Ry
     PV energy                 =      -0.08098302 Ry
     correction to one-el term =     197.26441729 Ry

     iteration # 28     ecut=    50.00 Ry     beta= 0.70
     Davidson diagonalization with overlap
     ethr =  2.08E-11,  avg # of iterations =  1.0

     negative rho (up, down):  1.425E-04 0.000E+00

     add environment contribution to local potential
     Polarization accuracy = 6.3E-12, # of iterations =  39

     total cpu time spent up to now is    15111.5 secs

     total energy              =   -3437.68972999 Ry
     estimated scf accuracy    <       0.00000007 Ry
     electrostatic embedding   =      -0.02349994 Ry
     cavitation energy         =       0.02071924 Ry
     PV energy                 =      -0.08098273 Ry
     correction to one-el term =     197.26366954 Ry

     iteration # 29     ecut=    50.00 Ry     beta= 0.70
     Davidson diagonalization with overlap
     ethr =  1.77E-11,  avg # of iterations =  2.0

     negative rho (up, down):  1.408E-04 0.000E+00

     add environment contribution to local potential
     Polarization accuracy = 6.0E-12, # of iterations =  39

     total cpu time spent up to now is    15273.5 secs

     total energy              =   -3437.68973248 Ry
     estimated scf accuracy    <       0.00000007 Ry
     electrostatic embedding   =      -0.02349963 Ry
     cavitation energy         =       0.02071964 Ry
     PV energy                 =      -0.08098252 Ry
     correction to one-el term =     197.26267138 Ry

     iteration # 30     ecut=    50.00 Ry     beta= 0.70
     Davidson diagonalization with overlap
     ethr =  1.77E-11,  avg # of iterations =  1.0

     negative rho (up, down):  1.354E-04 0.000E+00

     add environment contribution to local potential
     Polarization accuracy = 6.2E-12, # of iterations =  40

     total cpu time spent up to now is    15426.1 secs

     total energy              =   -3437.68973377 Ry
     estimated scf accuracy    <       0.00000005 Ry
     electrostatic embedding   =      -0.02349863 Ry
     cavitation energy         =       0.02071975 Ry
     PV energy                 =      -0.08098250 Ry
     correction to one-el term =     197.26223357 Ry

     iteration # 31     ecut=    50.00 Ry     beta= 0.70
     Davidson diagonalization with overlap
     ethr =  1.26E-11,  avg # of iterations =  6.0

     negative rho (up, down):  1.288E-04 0.000E+00

     add environment contribution to local potential
     Polarization accuracy = 4.7E-12, # of iterations =  39

     total cpu time spent up to now is    15603.1 secs

     total energy              =   -3437.68973927 Ry
     estimated scf accuracy    <       0.00000004 Ry
     electrostatic embedding   =      -0.02349686 Ry
     cavitation energy         =       0.02071970 Ry
     PV energy                 =      -0.08098278 Ry
     correction to one-el term =     197.26207657 Ry

     iteration # 32     ecut=    50.00 Ry     beta= 0.70
     Davidson diagonalization with overlap
     ethr =  9.56E-12,  avg # of iterations =  2.5

     negative rho (up, down):  1.309E-04 0.000E+00

     add environment contribution to local potential
     Polarization accuracy = 4.8E-12, # of iterations =  39

     total cpu time spent up to now is    15763.9 secs

     total energy              =   -3437.68974715 Ry
     estimated scf accuracy    <       0.00000002 Ry
     electrostatic embedding   =      -0.02349467 Ry
     cavitation energy         =       0.02071955 Ry
     PV energy                 =      -0.08098322 Ry
     correction to one-el term =     197.26219173 Ry

     iteration # 33     ecut=    50.00 Ry     beta= 0.70
     Davidson diagonalization with overlap
     ethr =  4.17E-12,  avg # of iterations =  3.5

     negative rho (up, down):  1.325E-04 0.000E+00

     add environment contribution to local potential
     Polarization accuracy = 5.6E-12, # of iterations =  40

     total cpu time spent up to now is    15909.9 secs

     total energy              =   -3437.68975040 Ry
     estimated scf accuracy    <          6.4E-09 Ry
     electrostatic embedding   =      -0.02349569 Ry
     cavitation energy         =       0.02071912 Ry
     PV energy                 =      -0.08098337 Ry
     correction to one-el term =     197.26290154 Ry

     iteration # 34     ecut=    50.00 Ry     beta= 0.70
     Davidson diagonalization with overlap
     ethr =  1.75E-12,  avg # of iterations =  2.0

     negative rho (up, down):  1.352E-04 0.000E+00

     add environment contribution to local potential
     Polarization accuracy = 4.8E-12, # of iterations =  39

     total cpu time spent up to now is    16048.8 secs

     total energy              =   -3437.68975113 Ry
     estimated scf accuracy    <          3.1E-09 Ry
     electrostatic embedding   =      -0.02349687 Ry
     cavitation energy         =       0.02071894 Ry
     PV energy                 =      -0.08098337 Ry
     correction to one-el term =     197.26316317 Ry

     iteration # 35     ecut=    50.00 Ry     beta= 0.70
     Davidson diagonalization with overlap
     ethr =  8.47E-13,  avg # of iterations =  2.0

     negative rho (up, down):  1.349E-04 0.000E+00

     add environment contribution to local potential
     Polarization accuracy = 4.8E-12, # of iterations =  39

     total cpu time spent up to now is    16215.2 secs

     total energy              =   -3437.68975155 Ry
     estimated scf accuracy    <          1.9E-09 Ry
     electrostatic embedding   =      -0.02349875 Ry
     cavitation energy         =       0.02071878 Ry
     PV energy                 =      -0.08098331 Ry
     correction to one-el term =     197.26356388 Ry

     iteration # 36     ecut=    50.00 Ry     beta= 0.70
     Davidson diagonalization with overlap
     ethr =  5.17E-13,  avg # of iterations =  1.0

     negative rho (up, down):  1.390E-04 0.000E+00

     the potential shift due to the Gaussian-smeared nuclei is    -1.3540 ev

     total cpu time spent up to now is    16355.5 secs

     End of self-consistent calculation

          k = 0.2500 0.2763 0.0000 ( 34692 PWs)   bands (ev):

   -77.5182 -77.5146 -77.5065 -77.5029 -77.4754 -77.4747 -77.4715 -77.4706
   -77.4632 -77.4593 -77.4494 -77.4461 -47.8667 -47.8621 -47.8596 -47.8567
   -47.8548 -47.8503 -47.6124 -47.6087 -47.6078 -47.6047 -47.6035 -47.6000
   -47.5955 -47.5486 -47.5365 -47.5169 -47.4782 -47.4689 -47.4662 -47.4568
   -47.4020 -47.3903 -47.3755 -47.3268 -47.3200 -47.3178 -47.3165 -47.3145
   -47.3068 -47.3056 -47.3046 -47.3020 -47.2957 -47.2950 -47.2252 -47.2138
   -24.2397 -24.1031 -23.9883 -23.6510 -23.5919 -23.5700 -23.5345 -23.5345
   -23.3673 -23.3528 -23.1507 -23.0076 -22.9416 -22.9227 -22.9112 -22.8813
   -22.8447 -22.7654 -22.7525 -22.6972 -22.6434 -22.6089 -22.6005 -22.5506
   -22.5300 -22.5254 -22.4426 -22.2310 -12.2977 -12.2469 -12.2231 -11.9919
   -11.8429 -11.8223 -11.7565 -11.6434 -11.4595 -11.4532 -11.4267 -11.2881
   -11.2672 -11.2142 -11.1711 -11.1530 -11.1511 -11.0806 -10.8775 -10.8164
   -10.7757 -10.6470 -10.5885 -10.5290 -10.4382 -10.3736 -10.2321 -10.2130
   -10.1754  -9.9797  -9.9672  -9.8042  -9.7828  -9.6352  -9.5931  -9.4834
    -9.3825  -9.3688  -9.2961  -9.2628  -9.1861  -9.0001  -8.9186  -8.9053
    -8.7769  -8.7215  -8.6806  -8.5927  -8.4084  -8.3941  -8.2621  -8.2493
    -8.2185  -8.1751  -8.1242  -8.1097  -8.0442  -8.0263  -7.9880  -7.9027
    -7.8542  -7.7118  -7.6931  -7.5461  -7.4990  -7.4669  -7.4492  -7.1870
    -7.1830  -7.1660  -7.1561  -6.9799  -6.8950  -6.7977  -6.7948  -6.7097
    -6.6072  -6.5793  -6.5215  -6.3818  -6.3640  -6.3310  -6.2413  -6.2147
    -5.1548  -5.1156  -4.9981  -4.9072  -4.9017  -4.8815  -4.8347  -4.8314
    -4.8219  -4.7617  -4.7495  -4.7279  -4.6636  -4.6623  -4.6132  -4.5760
    -4.5363  -4.5321  -4.4546  -4.3680  -4.2927  -4.2715  -4.1135  -4.0965
    -3.9854  -3.9616  -3.8583  -3.6693  -3.3795  -3.3452  -3.3285  -3.1394
    -3.0550  -3.0059  -2.8539  -2.7783  -2.0951  -1.9803  -1.7328  -1.7148
    -1.7048  -1.6137  -1.3590  -0.7807  -0.7284  -0.4538  -0.3912  -0.3865
    -0.2847   0.0137   0.0709   0.1137   0.1268   0.2085   0.3785   0.6564
     0.6820   0.7233   0.7314   1.0786   1.2794

          k =-0.2500 0.2763 0.0000 ( 34692 PWs)   bands (ev):

   -77.5182 -77.5146 -77.5065 -77.5029 -77.4754 -77.4747 -77.4715 -77.4706
   -77.4632 -77.4593 -77.4494 -77.4461 -47.8662 -47.8627 -47.8597 -47.8566
   -47.8544 -47.8509 -47.6124 -47.6087 -47.6078 -47.6047 -47.6036 -47.6000
   -47.5955 -47.5477 -47.5356 -47.5168 -47.4774 -47.4698 -47.4655 -47.4576
   -47.4039 -47.3922 -47.3757 -47.3243 -47.3195 -47.3190 -47.3167 -47.3122
   -47.3069 -47.3066 -47.3048 -47.3019 -47.2963 -47.2948 -47.2252 -47.2138
   -24.2403 -24.1037 -23.9890 -23.6474 -23.5853 -23.5653 -23.5300 -23.5295
   -23.3826 -23.3679 -23.1545 -23.0015 -22.9411 -22.9274 -22.9149 -22.8719
   -22.8384 -22.7660 -22.7516 -22.6970 -22.6449 -22.6089 -22.6008 -22.5500
   -22.5299 -22.5268 -22.4429 -22.2309 -12.2957 -12.2331 -12.2077 -11.9951
   -11.8373 -11.8147 -11.7611 -11.6343 -11.4759 -11.4627 -11.4591 -11.3051
   -11.2848 -11.2585 -11.1928 -11.1667 -11.1650 -10.9471 -10.8610 -10.8186
   -10.7768 -10.6804 -10.6308 -10.5646 -10.4178 -10.3587 -10.3042 -10.1624
   -10.1113  -9.9737  -9.9023  -9.8556  -9.7239  -9.5914  -9.5888  -9.4629
    -9.3894  -9.3749  -9.2843  -9.2427  -9.1946  -9.1091  -8.9370  -8.8559
    -8.8211  -8.7388  -8.6389  -8.5388  -8.4889  -8.4078  -8.2586  -8.2438
    -8.2311  -8.2106  -8.1821  -8.1696  -8.0641  -7.9576  -7.9147  -7.8576
    -7.8413  -7.6866  -7.6734  -7.6186  -7.5089  -7.5011  -7.4564  -7.1696
    -7.1340  -7.1225  -7.1198  -7.0271  -6.9393  -6.8124  -6.8069  -6.6953
    -6.5931  -6.5603  -6.5556  -6.4818  -6.3909  -6.2251  -6.2116  -6.1476
    -5.1669  -5.1175  -5.0807  -4.9361  -4.9214  -4.8762  -4.8440  -4.8280
    -4.8139  -4.7868  -4.7313  -4.7091  -4.6742  -4.6404  -4.6027  -4.5533
    -4.5177  -4.4985  -4.4657  -4.3885  -4.3123  -4.2042  -4.1522  -4.1049
    -4.0201  -3.8865  -3.8805  -3.6715  -3.3789  -3.3626  -3.3361  -3.1455
    -3.0539  -2.9964  -2.8465  -2.7786  -2.0941  -1.9770  -1.7394  -1.7136
    -1.7032  -1.6122  -1.3608  -0.7800  -0.7201  -0.4531  -0.3865  -0.3830
    -0.2839   0.0152   0.0739   0.1019   0.1181   0.2097   0.3748   0.6369
     0.6806   0.7317   0.7425   1.0748   1.2048

     the Fermi energy is    -4.0728 ev

!    total energy              =   -3437.68975184 Ry
     estimated scf accuracy    <          8.7E-10 Ry
     smearing contrib. (-TS)   =       0.07653635 Ry
     internal energy E=F+TS    =   -3437.76628819 Ry

     The total energy is F=E-TS. E is the sum of the following terms:
     one-electron contribution =  -25709.28957284 Ry
     hartree contribution      =   12837.88951112 Ry
     xc contribution           =    -449.96006012 Ry
     ewald contribution        =    9952.90161962 Ry
     one-center paw contrib.   =    -266.48749217 Ry
     electrostatic embedding   =      -0.02349844 Ry
     cavitation energy         =       0.02071888 Ry
     PV energy                 =      -0.08098329 Ry
     correction to one-el term =     197.26346906 Ry

     WARNING: you are using the parabolic pbc correction;
              the potential shift above must be added to 
              band and Fermi energies.

     convergence has been achieved in  36 iterations

     negative rho (up, down):  1.390E-04 0.000E+00

     Forces acting on atoms (cartesian axes, Ry/au):

     atom    1 type  1   force =     0.00018401    0.00000019   -0.00001037
     atom    2 type  1   force =     0.00024644    0.00001270   -0.00004752
     atom    3 type  1   force =     0.00013688    0.00023880    0.00001392
     atom    4 type  1   force =     0.00013565    0.00023516    0.00001495
     atom    5 type  2   force =    -0.00024344    0.00004518    0.00029481
     atom    6 type  2   force =    -0.00024387    0.00004445    0.00029478
     atom    7 type  1   force =     0.00070351   -0.00009483    0.00001644
     atom    8 type  1   force =     0.00070667   -0.00009378    0.00001674
     atom    9 type  2   force =     0.00003358   -0.00004549   -0.00008677
     atom   10 type  2   force =     0.00002968   -0.00004634   -0.00008077
     atom   11 type  1   force =    -0.00003144    0.00003246    0.00016209
     atom   12 type  1   force =    -0.00002732    0.00003047    0.00016065
     atom   13 type  1   force =    -0.00010840   -0.00008190    0.00031668
     atom   14 type  1   force =    -0.00010908   -0.00007847    0.00031542
     atom   15 type  1   force =    -0.00008097   -0.00035637   -0.00010596
     atom   16 type  1   force =    -0.00007782   -0.00035618   -0.00009028
     atom   17 type  2   force =     0.00002166   -0.00005709    0.00000000
     atom   18 type  2   force =     0.00002164   -0.00005723    0.00000000
     atom   19 type  1   force =     0.00006666   -0.00003161    0.00000000
     atom   20 type  1   force =     0.00006583   -0.00003028    0.00000000
     atom   21 type  2   force =    -0.00042049   -0.00019255    0.00000000
     atom   22 type  2   force =    -0.00041435   -0.00019263    0.00000000
     atom   23 type  1   force =     0.00037463   -0.00016529    0.00000000
     atom   24 type  1   force =     0.00037685   -0.00016537    0.00000000
     atom   25 type  1   force =    -0.00008097   -0.00035637    0.00010596
     atom   26 type  1   force =    -0.00007782   -0.00035618    0.00009028
     atom   27 type  1   force =    -0.00010840   -0.00008190   -0.00031668
     atom   28 type  1   force =    -0.00010908   -0.00007847   -0.00031542
     atom   29 type  2   force =    -0.00024344    0.00004518   -0.00029481
     atom   30 type  2   force =    -0.00024387    0.00004445   -0.00029478
     atom   31 type  1   force =     0.00070351   -0.00009483   -0.00001644
     atom   32 type  1   force =     0.00070667   -0.00009378   -0.00001674
     atom   33 type  2   force =     0.00003358   -0.00004549    0.00008677
     atom   34 type  2   force =     0.00002968   -0.00004634    0.00008077
     atom   35 type  1   force =    -0.00003144    0.00003246   -0.00016209
     atom   36 type  1   force =    -0.00002732    0.00003047   -0.00016065
     atom   37 type  1   force =     0.00013688    0.00023880   -0.00001392
     atom   38 type  1   force =     0.00013565    0.00023516   -0.00001495
     atom   39 type  1   force =     0.00018401    0.00000019    0.00001037
     atom   40 type  1   force =     0.00024644    0.00001270    0.00004752
     atom   41 type  3   force =     0.00035406    0.00026235   -0.00012423
     atom   42 type  3   force =     0.00035406    0.00026235    0.00012423
     atom   43 type  3   force =     0.00029566    0.00024974   -0.00009993
     atom   44 type  3   force =     0.00029566    0.00024974    0.00009993
     atom   45 type  3   force =    -0.00097503    0.00022393   -0.00017656
     atom   46 type  3   force =    -0.00097503    0.00022393    0.00017656
     atom   47 type  3   force =    -0.00097499    0.00022395   -0.00017693
     atom   48 type  3   force =    -0.00097499    0.00022395    0.00017693
     The non-local contrib.  to forces
     atom    1 type  1   force =     1.70318663    0.27852181    0.23138493
     atom    2 type  1   force =     1.70319579    0.27852592    0.23139585
     atom    3 type  1   force =     0.00328881    1.32822756    0.12981063
     atom    4 type  1   force =     0.00328114    1.32822470    0.12980111
     atom    5 type  2   force =    -0.00209075    0.01866788    0.03722810
     atom    6 type  2   force =    -0.00209158    0.01866795    0.03722788
     atom    7 type  1   force =    -0.03136282   -0.11737780   -0.11682592
     atom    8 type  1   force =    -0.03136018   -0.11737524   -0.11682132
     atom    9 type  2   force =     0.01670993    0.01780052    0.04956594
     atom   10 type  2   force =     0.01671339    0.01780087    0.04956031
     atom   11 type  1   force =    -0.02209803    0.10042891    0.17938058
     atom   12 type  1   force =    -0.02210172    0.10042498    0.17937462
     atom   13 type  1   force =     0.00683325    0.04812586    0.02239882
     atom   14 type  1   force =     0.00683206    0.04814130    0.02240273
     atom   15 type  1   force =    -0.03863926   -0.05662798   -0.00535999
     atom   16 type  1   force =    -0.03863412   -0.05663805   -0.00533639
     atom   17 type  2   force =    -0.02753226    0.00441149    0.00000000
     atom   18 type  2   force =    -0.02753399    0.00441423    0.00000000
     atom   19 type  1   force =     0.04114774    0.10278701    0.00000000
     atom   20 type  1   force =     0.04113649    0.10278690    0.00000000
     atom   21 type  2   force =     0.01214514    0.00601635    0.00000000
     atom   22 type  2   force =     0.01213993    0.00601686    0.00000000
     atom   23 type  1   force =     0.04519451   -0.09909109    0.00000000
     atom   24 type  1   force =     0.04518023   -0.09909171    0.00000000
     atom   25 type  1   force =    -0.03863926   -0.05662798    0.00535999
     atom   26 type  1   force =    -0.03863412   -0.05663805    0.00533639
     atom   27 type  1   force =     0.00683325    0.04812586   -0.02239882
     atom   28 type  1   force =     0.00683206    0.04814130   -0.02240273
     atom   29 type  2   force =    -0.00209075    0.01866788   -0.03722810
     atom   30 type  2   force =    -0.00209158    0.01866795   -0.03722788
     atom   31 type  1   force =    -0.03136282   -0.11737780    0.11682592
     atom   32 type  1   force =    -0.03136018   -0.11737524    0.11682132
     atom   33 type  2   force =     0.01670993    0.01780052   -0.04956594
     atom   34 type  2   force =     0.01671339    0.01780087   -0.04956031
     atom   35 type  1   force =    -0.02209803    0.10042891   -0.17938058
     atom   36 type  1   force =    -0.02210172    0.10042498   -0.17937462
     atom   37 type  1   force =     0.00328881    1.32822756   -0.12981063
     atom   38 type  1   force =     0.00328114    1.32822470   -0.12980111
     atom   39 type  1   force =     1.70318663    0.27852181   -0.23138493
     atom   40 type  1   force =     1.70319579    0.27852592   -0.23139585
     atom   41 type  3   force =    -0.09564072   -0.01986082    0.04627609
     atom   42 type  3   force =    -0.09564072   -0.01986082   -0.04627609
     atom   43 type  3   force =    -0.09562767   -0.01985835    0.04627022
     atom   44 type  3   force =    -0.09562767   -0.01985835   -0.04627022
     atom   45 type  3   force =     0.00063732   -0.07713382    0.04923573
     atom   46 type  3   force =     0.00063732   -0.07713382   -0.04923573
     atom   47 type  3   force =     0.00063795   -0.07713433    0.04923632
     atom   48 type  3   force =     0.00063795   -0.07713433   -0.04923632
     The ionic contribution  to forces
     atom    1 type  1   force =    -2.80494830    0.10312258  -95.78321805
     atom    2 type  1   force =    -2.80465900    0.10310660  -95.78368217
     atom    3 type  1   force =     0.02366891   -3.81635186  -92.74906499
     atom    4 type  1   force =     0.02372425   -3.81635627  -92.74904324
     atom    5 type  2   force =    -0.21261821   -2.19754190 -171.20560715
     atom    6 type  2   force =    -0.21257765   -2.19752311 -171.20572172
     atom    7 type  1   force =     0.06313172   -0.12506682  -60.87695424
     atom    8 type  1   force =     0.06322042   -0.12505627  -60.87719127
     atom    9 type  2   force =     0.08386943    2.98626880 -171.94486108
     atom   10 type  2   force =     0.08408039    2.98626747 -171.94562764
     atom   11 type  1   force =     0.04122869    0.77052000  -69.36950824
     atom   12 type  1   force =     0.04140714    0.77048853  -69.36953608
     atom   13 type  1   force =    -0.02912513   -0.65084020  -38.69327056
     atom   14 type  1   force =    -0.02909191   -0.65086264  -38.69330060
     atom   15 type  1   force =     0.13468679    0.41727423  -25.91696366
     atom   16 type  1   force =     0.13473607    0.41727401  -25.91714252
     atom   17 type  2   force =    -0.18652371    0.77805826   -0.00044618
     atom   18 type  2   force =    -0.18645668    0.77826211   -0.00044619
     atom   19 type  1   force =    -0.10417210    0.60377983   -0.00008551
     atom   20 type  1   force =    -0.10412487    0.60377626   -0.00008551
     atom   21 type  2   force =     0.25119637   -0.26427256   -0.00025332
     atom   22 type  2   force =     0.25082244   -0.26429513   -0.00025332
     atom   23 type  1   force =    -0.12711343   -0.62486289   -0.00008322
     atom   24 type  1   force =    -0.12692687   -0.62483110   -0.00008322
     atom   25 type  1   force =     0.13469018    0.41727614   25.91675653
     atom   26 type  1   force =     0.13473945    0.41727592   25.91693542
     atom   27 type  1   force =    -0.02912505   -0.65085161   38.69356709
     atom   28 type  1   force =    -0.02909183   -0.65087405   38.69359714
     atom   29 type  2   force =    -0.21261837   -2.19754425  171.20588704
     atom   30 type  2   force =    -0.21257780   -2.19752547  171.20600161
     atom   31 type  1   force =     0.06313314   -0.12509467   60.87701870
     atom   32 type  1   force =     0.06322185   -0.12508413   60.87725574
     atom   33 type  2   force =     0.08386418    2.98627973  171.94498812
     atom   34 type  2   force =     0.08407515    2.98627839  171.94575468
     atom   35 type  1   force =     0.04123044    0.77055056   69.36956868
     atom   36 type  1   force =     0.04140890    0.77051909   69.36959652
     atom   37 type  1   force =     0.02366841   -3.81657069   92.74917707
     atom   38 type  1   force =     0.02372375   -3.81657511   92.74915532
     atom   39 type  1   force =    -2.80503290    0.10311314   95.78333554
     atom   40 type  1   force =    -2.80474360    0.10309717   95.78379965
     atom   41 type  3   force =     2.80535375    0.76732580  -16.58341605
     atom   42 type  3   force =     2.80544228    0.76734346   16.58343761
     atom   43 type  3   force =     2.80513334    0.76727835  -16.58331282
     atom   44 type  3   force =     2.80522186    0.76729601   16.58333438
     atom   45 type  3   force =    -0.02228856    1.49893987  -16.99196296
     atom   46 type  3   force =    -0.02228915    1.49913724   16.99195880
     atom   47 type  3   force =    -0.02228680    1.49893690  -16.99198485
     atom   48 type  3   force =    -0.02228739    1.49913427   16.99198070
     The local contribution  to forces
     atom    1 type  1   force =     1.09448624   -0.34799414   95.56455090
     atom    2 type  1   force =     1.09424920   -0.34796876   95.56497796
     atom    3 type  1   force =    -0.02922464    2.46280204   92.61145170
     atom    4 type  1   force =    -0.02926422    2.46280604   92.61144381
     atom    5 type  2   force =     0.21544535    2.15403379  171.16144782
     atom    6 type  2   force =     0.21539621    2.15401427  171.16156093
     atom    7 type  1   force =    -0.03088158    0.24296243   60.99996821
     atom    8 type  1   force =    -0.03098496    0.24294264   61.00019933
     atom    9 type  2   force =    -0.10304639   -2.98111652  171.89812466
     atom   10 type  2   force =    -0.10326325   -2.98111647  171.89890440
     atom   11 type  1   force =    -0.01802010   -0.86281054   69.18362417
     atom   12 type  1   force =    -0.01820564   -0.86276945   69.18365631
     atom   13 type  1   force =     0.02218683    0.60052675   38.66998067
     atom   14 type  1   force =     0.02216305    0.60053717   38.67000084
     atom   15 type  1   force =    -0.09655863   -0.36037450   25.92155035
     atom   16 type  1   force =    -0.09662657   -0.36036442   25.92171391
     atom   17 type  2   force =     0.21407371   -0.78424590   -0.00586933
     atom   18 type  2   force =     0.21399966   -0.78445272   -0.00586933
     atom   19 type  1   force =     0.06356654   -0.70641101   -0.00246536
     atom   20 type  1   force =     0.06353261   -0.70641767   -0.00246536
     atom   21 type  2   force =    -0.26374836    0.25977963   -0.00605225
     atom   22 type  2   force =    -0.26337038    0.25980186   -0.00605225
     atom   23 type  1   force =     0.08279860    0.72311958   -0.00247080
     atom   24 type  1   force =     0.08263154    0.72309997   -0.00247080
     atom   25 type  1   force =    -0.09656006   -0.36038707  -25.92331967
     atom   26 type  1   force =    -0.09662800   -0.36037699  -25.92348322
     atom   27 type  1   force =     0.02218767    0.60052596  -38.67176842
     atom   28 type  1   force =     0.02216389    0.60053638  -38.67178859
     atom   29 type  2   force =     0.21544604    2.15404121 -171.16752571
     atom   30 type  2   force =     0.21539691    2.15402169 -171.16763883
     atom   31 type  1   force =    -0.03088042    0.24297446  -61.00242270
     atom   32 type  1   force =    -0.03098380    0.24295468  -61.00265382
     atom   33 type  2   force =    -0.10305039   -2.98118163 -171.90398779
     atom   34 type  2   force =    -0.10326725   -2.98118159 -171.90476752
     atom   35 type  1   force =    -0.01801870   -0.86283170  -69.18609602
     atom   36 type  1   force =    -0.01820424   -0.86279061  -69.18612817
     atom   37 type  1   force =    -0.02922283    2.46293071  -92.61527754
     atom   38 type  1   force =    -0.02926242    2.46293471  -92.61526966
     atom   39 type  1   force =     1.09451496   -0.34802827  -95.56614487
     atom   40 type  1   force =     1.09427791   -0.34800289  -95.56657191
     atom   41 type  3   force =    -2.71831290   -0.74485944   16.55109765
     atom   42 type  3   force =    -2.71831290   -0.74485944  -16.55109765
     atom   43 type  3   force =    -2.71816475   -0.74482755   16.55102685
     atom   44 type  3   force =    -2.71816475   -0.74482755  -16.55102685
     atom   45 type  3   force =     0.01927030   -1.42622402   16.94780917
     atom   46 type  3   force =     0.01927030   -1.42622402  -16.94780917
     atom   47 type  3   force =     0.01926836   -1.42622019   16.94783120
     atom   48 type  3   force =     0.01926836   -1.42622019  -16.94783120
     The core correction contribution to forces
     atom    1 type  1   force =    -0.01710792   -0.00285822   -0.00284312
     atom    2 type  1   force =    -0.01710874   -0.00285838   -0.00284279
     atom    3 type  1   force =    -0.00005802   -0.01289896   -0.00195761
     atom    4 type  1   force =    -0.00005796   -0.01289891   -0.00195753
     atom    5 type  2   force =     0.00000000    0.00000000    0.00000000
     atom    6 type  2   force =     0.00000000    0.00000000    0.00000000
     atom    7 type  1   force =     0.00034827    0.00070233    0.00114410
     atom    8 type  1   force =     0.00034825    0.00070231    0.00114406
     atom    9 type  2   force =     0.00000000    0.00000000    0.00000000
     atom   10 type  2   force =     0.00000000    0.00000000    0.00000000
     atom   11 type  1   force =     0.00028952   -0.00046547   -0.00167375
     atom   12 type  1   force =     0.00028955   -0.00046543   -0.00167368
     atom   13 type  1   force =    -0.00005779   -0.00050734   -0.00034735
     atom   14 type  1   force =    -0.00005779   -0.00050751   -0.00034736
     atom   15 type  1   force =     0.00041537    0.00063022   -0.00009531
     atom   16 type  1   force =     0.00041532    0.00063034   -0.00009575
     atom   17 type  2   force =     0.00000000    0.00000000    0.00000000
     atom   18 type  2   force =     0.00000000    0.00000000    0.00000000
     atom   19 type  1   force =    -0.00047470   -0.00056750   -0.00000207
     atom   20 type  1   force =    -0.00047460   -0.00056748   -0.00000207
     atom   21 type  2   force =     0.00000000    0.00000000    0.00000000
     atom   22 type  2   force =     0.00000000    0.00000000    0.00000000
     atom   23 type  1   force =    -0.00050363    0.00054713   -0.00000195
     atom   24 type  1   force =    -0.00050352    0.00054710   -0.00000195
     atom   25 type  1   force =     0.00041532    0.00063043    0.00009306
     atom   26 type  1   force =     0.00041527    0.00063055    0.00009350
     atom   27 type  1   force =    -0.00005779   -0.00050748    0.00034506
     atom   28 type  1   force =    -0.00005779   -0.00050765    0.00034507
     atom   29 type  2   force =     0.00000000    0.00000000    0.00000000
     atom   30 type  2   force =     0.00000000    0.00000000    0.00000000
     atom   31 type  1   force =     0.00034827    0.00070246   -0.00114606
     atom   32 type  1   force =     0.00034825    0.00070245   -0.00114603
     atom   33 type  2   force =     0.00000000    0.00000000    0.00000000
     atom   34 type  2   force =     0.00000000    0.00000000    0.00000000
     atom   35 type  1   force =     0.00028955   -0.00046557    0.00167163
     atom   36 type  1   force =     0.00028958   -0.00046554    0.00167156
     atom   37 type  1   force =    -0.00005800   -0.01290077    0.00195383
     atom   38 type  1   force =    -0.00005794   -0.01290072    0.00195375
     atom   39 type  1   force =    -0.01710869   -0.00285826    0.00284061
     atom   40 type  1   force =    -0.01710951   -0.00285842    0.00284029
     atom   41 type  3   force =     0.00000000    0.00000000    0.00000000
     atom   42 type  3   force =     0.00000000    0.00000000    0.00000000
     atom   43 type  3   force =     0.00000000    0.00000000    0.00000000
     atom   44 type  3   force =     0.00000000    0.00000000    0.00000000
     atom   45 type  3   force =     0.00000000    0.00000000    0.00000000
     atom   46 type  3   force =     0.00000000    0.00000000    0.00000000
     atom   47 type  3   force =     0.00000000    0.00000000    0.00000000
     atom   48 type  3   force =     0.00000000    0.00000000    0.00000000
     The Hubbard contrib.    to forces
     atom    1 type  1   force =     0.00000000    0.00000000    0.00000000
     atom    2 type  1   force =     0.00000000    0.00000000    0.00000000
     atom    3 type  1   force =     0.00000000    0.00000000    0.00000000
     atom    4 type  1   force =     0.00000000    0.00000000    0.00000000
     atom    5 type  2   force =     0.00000000    0.00000000    0.00000000
     atom    6 type  2   force =     0.00000000    0.00000000    0.00000000
     atom    7 type  1   force =     0.00000000    0.00000000    0.00000000
     atom    8 type  1   force =     0.00000000    0.00000000    0.00000000
     atom    9 type  2   force =     0.00000000    0.00000000    0.00000000
     atom   10 type  2   force =     0.00000000    0.00000000    0.00000000
     atom   11 type  1   force =     0.00000000    0.00000000    0.00000000
     atom   12 type  1   force =     0.00000000    0.00000000    0.00000000
     atom   13 type  1   force =     0.00000000    0.00000000    0.00000000
     atom   14 type  1   force =     0.00000000    0.00000000    0.00000000
     atom   15 type  1   force =     0.00000000    0.00000000    0.00000000
     atom   16 type  1   force =     0.00000000    0.00000000    0.00000000
     atom   17 type  2   force =     0.00000000    0.00000000    0.00000000
     atom   18 type  2   force =     0.00000000    0.00000000    0.00000000
     atom   19 type  1   force =     0.00000000    0.00000000    0.00000000
     atom   20 type  1   force =     0.00000000    0.00000000    0.00000000
     atom   21 type  2   force =     0.00000000    0.00000000    0.00000000
     atom   22 type  2   force =     0.00000000    0.00000000    0.00000000
     atom   23 type  1   force =     0.00000000    0.00000000    0.00000000
     atom   24 type  1   force =     0.00000000    0.00000000    0.00000000
     atom   25 type  1   force =     0.00000000    0.00000000    0.00000000
     atom   26 type  1   force =     0.00000000    0.00000000    0.00000000
     atom   27 type  1   force =     0.00000000    0.00000000    0.00000000
     atom   28 type  1   force =     0.00000000    0.00000000    0.00000000
     atom   29 type  2   force =     0.00000000    0.00000000    0.00000000
     atom   30 type  2   force =     0.00000000    0.00000000    0.00000000
     atom   31 type  1   force =     0.00000000    0.00000000    0.00000000
     atom   32 type  1   force =     0.00000000    0.00000000    0.00000000
     atom   33 type  2   force =     0.00000000    0.00000000    0.00000000
     atom   34 type  2   force =     0.00000000    0.00000000    0.00000000
     atom   35 type  1   force =     0.00000000    0.00000000    0.00000000
     atom   36 type  1   force =     0.00000000    0.00000000    0.00000000
     atom   37 type  1   force =     0.00000000    0.00000000    0.00000000
     atom   38 type  1   force =     0.00000000    0.00000000    0.00000000
     atom   39 type  1   force =     0.00000000    0.00000000    0.00000000
     atom   40 type  1   force =     0.00000000    0.00000000    0.00000000
     atom   41 type  3   force =     0.00000000    0.00000000    0.00000000
     atom   42 type  3   force =     0.00000000    0.00000000    0.00000000
     atom   43 type  3   force =     0.00000000    0.00000000    0.00000000
     atom   44 type  3   force =     0.00000000    0.00000000    0.00000000
     atom   45 type  3   force =     0.00000000    0.00000000    0.00000000
     atom   46 type  3   force =     0.00000000    0.00000000    0.00000000
     atom   47 type  3   force =     0.00000000    0.00000000    0.00000000
     atom   48 type  3   force =     0.00000000    0.00000000    0.00000000
     The SCF correction term to forces
     atom    1 type  1   force =     0.00000358    0.00000704   -0.00001005
     atom    2 type  1   force =     0.00000226    0.00000575   -0.00001789
     atom    3 type  1   force =     0.00000562   -0.00000051   -0.00001477
     atom    4 type  1   force =    -0.00000507   -0.00000097   -0.00001606
     atom    5 type  2   force =    -0.00000593   -0.00000095   -0.00003672
     atom    6 type  2   force =     0.00000519   -0.00000098   -0.00003378
     atom    7 type  1   force =    -0.00000847    0.00000402   -0.00001629
     atom    8 type  1   force =     0.00000759    0.00001168   -0.00001395
     atom    9 type  2   force =     0.00000348    0.00000190   -0.00004776
     atom   10 type  2   force =    -0.00000019    0.00000209   -0.00004654
     atom   11 type  1   force =    -0.00000851   -0.00000416   -0.00001806
     atom   12 type  1   force =     0.00000754   -0.00001175   -0.00001693
     atom   13 type  1   force =     0.00000467   -0.00000068   -0.00001307
     atom   14 type  1   force =    -0.00000447   -0.00000048   -0.00000809
     atom   15 type  1   force =    -0.00000818   -0.00000034   -0.00001361
     atom   16 type  1   force =     0.00000843   -0.00000003   -0.00000563
     atom   17 type  2   force =    -0.00000344    0.00000112    0.00002767
     atom   18 type  2   force =     0.00000512    0.00000120    0.00002767
     atom   19 type  1   force =     0.00000114   -0.00000338    0.00000976
     atom   20 type  1   force =    -0.00000174    0.00000827    0.00000976
     atom   21 type  2   force =    -0.00000354   -0.00000106    0.00002805
     atom   22 type  2   force =     0.00000399   -0.00000130    0.00002805
     atom   23 type  1   force =     0.00000123    0.00000351    0.00001017
     atom   24 type  1   force =    -0.00000179   -0.00000811    0.00001017
     atom   25 type  1   force =    -0.00000820    0.00000013    0.00002485
     atom   26 type  1   force =     0.00000841    0.00000045    0.00001687
     atom   27 type  1   force =     0.00000468   -0.00000137    0.00001531
     atom   28 type  1   force =    -0.00000446   -0.00000117    0.00001033
     atom   29 type  2   force =    -0.00000595   -0.00000314    0.00002223
     atom   30 type  2   force =     0.00000516   -0.00000317    0.00001930
     atom   31 type  1   force =    -0.00000847    0.00000377    0.00001096
     atom   32 type  1   force =     0.00000759    0.00001143    0.00000862
     atom   33 type  2   force =     0.00000350    0.00000412    0.00003108
     atom   34 type  2   force =    -0.00000017    0.00000431    0.00002986
     atom   35 type  1   force =    -0.00000851   -0.00000318    0.00001233
     atom   36 type  1   force =     0.00000754   -0.00001076    0.00001120
     atom   37 type  1   force =     0.00000563   -0.00000105    0.00001085
     atom   38 type  1   force =    -0.00000507   -0.00000151    0.00001214
     atom   39 type  1   force =     0.00000358    0.00000705    0.00000853
     atom   40 type  1   force =     0.00000226    0.00000576    0.00001637
     atom   41 type  3   force =    -0.00000052    0.00000049   -0.00000160
     atom   42 type  3   force =    -0.00000051    0.00000051    0.00000129
     atom   43 type  3   force =     0.00000017    0.00000050   -0.00000235
     atom   44 type  3   force =     0.00000018    0.00000052    0.00000203
     atom   45 type  3   force =     0.00000047    0.00000133   -0.00000255
     atom   46 type  3   force =     0.00000047    0.00000126    0.00000210
     atom   47 type  3   force =    -0.00000034    0.00000087   -0.00000298
     atom   48 type  3   force =    -0.00000034    0.00000080    0.00000253

     Total force =     0.003155     Total SCF correction =     0.000142

     BFGS Geometry Optimization
     Energy error            =      0.0E+00 Ry
     Gradient error          =      9.8E-04 Ry/Bohr

     number of scf cycles    =   1
     number of bfgs steps    =   0

     energy             new  =   -3437.6897518406 Ry

     new trust radius        =       0.0010159065 bohr
     new conv_thr            =       0.0000000010 Ry


ATOMIC_POSITIONS (crystal)
O            -0.0051820031        0.4406512826        0.2679058419
O             0.4948186874        0.4406526090        0.2679055030
O            -0.0035928463        0.0121757462        0.3018865041
O             0.4964068894        0.0121761973        0.3018865169
Ru            0.2462768892        0.0006831489        0.3586115040
Ru            0.7462769975        0.0006833197        0.3586114345
O             0.2521866671        0.3149360132        0.3613875522
O             0.7521865952        0.3149362655        0.3613872752
Ru            0.0016294144        0.5009136308        0.3564286611
Ru            0.5016292416        0.5009137432        0.3564282324
O             0.2526252876        0.6874915486        0.3510551481
O             0.7526253797        0.6874916067        0.3510551228
O            -0.0031186674       -0.0028978203        0.4111154768
O             0.4968814501       -0.0028989654        0.4111155480
O             0.0053715858        0.5131996785        0.4451068015
O             0.5053715570        0.5132003218        0.4451057782
Ru           -0.0033313351        0.0085738263        0.5000010000
Ru            0.4966686411        0.0085737787        0.5000010000
O             0.2452747501        0.1954850514        0.5000010000
O             0.7452745033        0.1954851900        0.5000010000
Ru            0.2567908575        0.5097387731        0.5000010000
Ru            0.7567892417        0.5097387959        0.5000010000
O             0.2457113530        0.8238160824        0.5000010000
O             0.7457107160        0.8238158990        0.5000010000
O             0.0053715858        0.5131996785        0.5548941985
O             0.5053715570        0.5132003218        0.5548952218
O            -0.0031186674       -0.0028978203        0.5888855232
O             0.4968814501       -0.0028989654        0.5888854520
Ru            0.2462768892        0.0006831489        0.6413894960
Ru            0.7462769975        0.0006833197        0.6413895655
O             0.2521866671        0.3149360132        0.6386134478
O             0.7521865952        0.3149362655        0.6386137248
Ru            0.0016294144        0.5009136308        0.6435723389
Ru            0.5016292416        0.5009137432        0.6435727676
O             0.2526252876        0.6874915486        0.6489458519
O             0.7526253797        0.6874916067        0.6489458772
O            -0.0035928463        0.0121757462        0.6981154959
O             0.4964068894        0.0121761973        0.6981154831
O            -0.0051820031        0.4406512826        0.7320951581
O             0.4948186874        0.4406526090        0.7320954970
H             0.1284316290        0.4705989591        0.2498696221
H             0.1284316290        0.4705989591        0.7501303779
H             0.6284274611        0.4705992958        0.2498699895
H             0.6284274611        0.4705992958        0.7501300105
H            -0.0042126855        0.1576562102        0.2781722646
H            -0.0042126855        0.1576562102        0.7218277354
H             0.4957861064        0.1576565103        0.2781722075
H             0.4957861064        0.1576565103        0.7218277925



     Writing config-only to output data dir /storage/home/mgm6007/ixd4/Maria/Strain1_Files/RuO2-110-0-0123/RuO2-110-0-0123.save/
     NEW-OLD atomic charge density approx. for the potential

     Check: negative core charge=   -0.000001

     negative rho (up, down):  1.390E-04 0.000E+00

     add environment contribution to local potential
     Polarization accuracy = 8.0E-12, # of iterations =  39

     total cpu time spent up to now is    16497.6 secs

     per-process dynamical memory:   215.8 Mb

     Self-consistent Calculation

     iteration #  1     ecut=    50.00 Ry     beta= 0.70
     Davidson diagonalization with overlap
     ethr =  1.00E-06,  avg # of iterations =  2.0

     Threshold (ethr) on eigenvalues was too large:
     Diagonalizing with lowered threshold

     Davidson diagonalization with overlap
     ethr =  4.74E-10,  avg # of iterations =  4.0

     negative rho (up, down):  1.386E-04 0.000E+00

     add environment contribution to local potential
     Polarization accuracy = 7.1E-12, # of iterations =  39

     total cpu time spent up to now is    16648.6 secs

     total energy              =   -3437.68976135 Ry
     estimated scf accuracy    <       0.00000163 Ry
     electrostatic embedding   =      -0.02348953 Ry
     cavitation energy         =       0.02071895 Ry
     PV energy                 =      -0.08098401 Ry
     correction to one-el term =     197.26565772 Ry

     iteration #  2     ecut=    50.00 Ry     beta= 0.70
     Davidson diagonalization with overlap
     ethr =  4.42E-10,  avg # of iterations =  1.0

     negative rho (up, down):  1.385E-04 0.000E+00

     add environment contribution to local potential
     Polarization accuracy = 7.2E-12, # of iterations =  39

     total cpu time spent up to now is    16791.5 secs

     total energy              =   -3437.68976136 Ry
     estimated scf accuracy    <       0.00000203 Ry
     electrostatic embedding   =      -0.02349374 Ry
     cavitation energy         =       0.02071905 Ry
     PV energy                 =      -0.08098377 Ry
     correction to one-el term =     197.26490223 Ry

     iteration #  3     ecut=    50.00 Ry     beta= 0.70
     Davidson diagonalization with overlap
     ethr =  4.42E-10,  avg # of iterations =  1.0

     negative rho (up, down):  1.381E-04 0.000E+00

     add environment contribution to local potential
     Polarization accuracy = 6.4E-12, # of iterations =  39

     total cpu time spent up to now is    16933.7 secs

     total energy              =   -3437.68976144 Ry
     estimated scf accuracy    <       0.00000027 Ry
     electrostatic embedding   =      -0.02349509 Ry
     cavitation energy         =       0.02071909 Ry
     PV energy                 =      -0.08098367 Ry
     correction to one-el term =     197.26493496 Ry

     iteration #  4     ecut=    50.00 Ry     beta= 0.70
     Davidson diagonalization with overlap
     ethr =  7.33E-11,  avg # of iterations =  1.0

     negative rho (up, down):  1.379E-04 0.000E+00

     add environment contribution to local potential
     Polarization accuracy = 6.1E-12, # of iterations =  39

     total cpu time spent up to now is    17085.2 secs

     total energy              =   -3437.68976143 Ry
     estimated scf accuracy    <       0.00000012 Ry
     electrostatic embedding   =      -0.02349748 Ry
     cavitation energy         =       0.02071914 Ry
     PV energy                 =      -0.08098355 Ry
     correction to one-el term =     197.26467730 Ry

     iteration #  5     ecut=    50.00 Ry     beta= 0.70
     Davidson diagonalization with overlap
     ethr =  3.24E-11,  avg # of iterations =  1.0

     negative rho (up, down):  1.378E-04 0.000E+00

     add environment contribution to local potential
     Polarization accuracy = 5.3E-12, # of iterations =  39

     total cpu time spent up to now is    17226.8 secs

     total energy              =   -3437.68976143 Ry
     estimated scf accuracy    <          9.2E-09 Ry
     electrostatic embedding   =      -0.02349853 Ry
     cavitation energy         =       0.02071914 Ry
     PV energy                 =      -0.08098352 Ry
     correction to one-el term =     197.26455447 Ry

     iteration #  6     ecut=    50.00 Ry     beta= 0.70
     Davidson diagonalization with overlap
     ethr =  2.49E-12,  avg # of iterations =  1.0

     negative rho (up, down):  1.377E-04 0.000E+00

     add environment contribution to local potential
     Polarization accuracy = 5.9E-12, # of iterations =  40

     total cpu time spent up to now is    17375.2 secs

     total energy              =   -3437.68976142 Ry
     estimated scf accuracy    <          5.5E-09 Ry
     electrostatic embedding   =      -0.02349922 Ry
     cavitation energy         =       0.02071914 Ry
     PV energy                 =      -0.08098351 Ry
     correction to one-el term =     197.26451492 Ry

     iteration #  7     ecut=    50.00 Ry     beta= 0.70
     Davidson diagonalization with overlap
     ethr =  1.49E-12,  avg # of iterations =  1.0

     negative rho (up, down):  1.375E-04 0.000E+00

     add environment contribution to local potential
     Polarization accuracy = 4.0E-12, # of iterations =  40

     total cpu time spent up to now is    17510.7 secs

     total energy              =   -3437.68976142 Ry
     estimated scf accuracy    <          2.2E-09 Ry
     electrostatic embedding   =      -0.02349951 Ry
     cavitation energy         =       0.02071914 Ry
     PV energy                 =      -0.08098351 Ry
     correction to one-el term =     197.26449779 Ry

     iteration #  8     ecut=    50.00 Ry     beta= 0.70
     Davidson diagonalization with overlap
     ethr =  6.00E-13,  avg # of iterations =  2.0

     negative rho (up, down):  1.375E-04 0.000E+00

     add environment contribution to local potential
     Polarization accuracy = 7.7E-12, # of iterations =  39

     total cpu time spent up to now is    17662.8 secs

     total energy              =   -3437.68976141 Ry
     estimated scf accuracy    <          1.1E-09 Ry
     electrostatic embedding   =      -0.02350040 Ry
     cavitation energy         =       0.02071913 Ry
     PV energy                 =      -0.08098351 Ry
     correction to one-el term =     197.26442044 Ry

     iteration #  9     ecut=    50.00 Ry     beta= 0.70
     Davidson diagonalization with overlap
     ethr =  3.07E-13,  avg # of iterations =  1.0

     negative rho (up, down):  1.390E-04 0.000E+00

     the potential shift due to the Gaussian-smeared nuclei is    -1.3540 ev

     total cpu time spent up to now is    17805.7 secs

     End of self-consistent calculation

          k = 0.2500 0.2763 0.0000 ( 34692 PWs)   bands (ev):

   -77.5182 -77.5146 -77.5063 -77.5027 -77.4755 -77.4743 -77.4716 -77.4701
   -77.4632 -77.4593 -77.4488 -77.4455 -47.8668 -47.8622 -47.8591 -47.8562
   -47.8548 -47.8503 -47.6124 -47.6086 -47.6078 -47.6046 -47.6029 -47.6000
   -47.5955 -47.5486 -47.5363 -47.5162 -47.4781 -47.4689 -47.4660 -47.4566
   -47.4019 -47.3901 -47.3748 -47.3269 -47.3195 -47.3179 -47.3164 -47.3146
   -47.3066 -47.3057 -47.3044 -47.3015 -47.2950 -47.2947 -47.2249 -47.2135
   -24.2393 -24.1029 -23.9879 -23.6507 -23.5917 -23.5694 -23.5341 -23.5337
   -23.3669 -23.3522 -23.1503 -23.0077 -22.9415 -22.9225 -22.9110 -22.8811
   -22.8443 -22.7650 -22.7521 -22.6968 -22.6434 -22.6090 -22.6005 -22.5504
   -22.5295 -22.5254 -22.4423 -22.2307 -12.2971 -12.2466 -12.2229 -11.9916
   -11.8428 -11.8221 -11.7559 -11.6432 -11.4590 -11.4535 -11.4270 -11.2877
   -11.2669 -11.2142 -11.1710 -11.1526 -11.1508 -11.0808 -10.8775 -10.8162
   -10.7758 -10.6467 -10.5884 -10.5287 -10.4381 -10.3739 -10.2321 -10.2128
   -10.1752  -9.9793  -9.9669  -9.8038  -9.7824  -9.6347  -9.5930  -9.4835
    -9.3822  -9.3683  -9.2956  -9.2629  -9.1860  -8.9999  -8.9183  -8.9050
    -8.7768  -8.7217  -8.6806  -8.5924  -8.4082  -8.3937  -8.2621  -8.2493
    -8.2183  -8.1749  -8.1240  -8.1096  -8.0444  -8.0259  -7.9885  -7.9024
    -7.8541  -7.7118  -7.6927  -7.5457  -7.4988  -7.4666  -7.4488  -7.1868
    -7.1828  -7.1656  -7.1558  -6.9798  -6.8951  -6.7975  -6.7945  -6.7095
    -6.6068  -6.5790  -6.5217  -6.3817  -6.3640  -6.3309  -6.2415  -6.2145
    -5.1544  -5.1152  -4.9979  -4.9072  -4.9008  -4.8815  -4.8346  -4.8313
    -4.8217  -4.7616  -4.7492  -4.7280  -4.6632  -4.6624  -4.6129  -4.5755
    -4.5357  -4.5319  -4.4544  -4.3681  -4.2923  -4.2712  -4.1134  -4.0963
    -3.9853  -3.9615  -3.8582  -3.6688  -3.3795  -3.3448  -3.3283  -3.1395
    -3.0546  -3.0056  -2.8534  -2.7780  -2.0950  -1.9803  -1.7330  -1.7142
    -1.7052  -1.6138  -1.3585  -0.7810  -0.7284  -0.4540  -0.3913  -0.3864
    -0.2842   0.0139   0.0720   0.1140   0.1269   0.2082   0.3787   0.6567
     0.6817   0.7242   0.7319   1.0786   1.2796

[...]
     atom   15 type  1   force =    -0.08372110   -0.35362276   25.91677035
     atom   16 type  1   force =    -0.08371412   -0.35363055   25.91673897
     atom   17 type  2   force =     0.17933539   -0.70007787   -0.00586878
     atom   18 type  2   force =     0.17933306   -0.70000088   -0.00586878
     atom   19 type  1   force =     0.07400282   -0.70082162   -0.00246515
     atom   20 type  1   force =     0.07398336   -0.70082281   -0.00246515
     atom   21 type  2   force =    -0.28654641    0.23049991   -0.00605197
     atom   22 type  2   force =    -0.28661808    0.23050419   -0.00605197
     atom   23 type  1   force =     0.10008193    0.72446570   -0.00247108
     atom   24 type  1   force =     0.10010028    0.72446584   -0.00247108
     atom   25 type  1   force =    -0.08372227   -0.35363371  -25.91853957
     atom   26 type  1   force =    -0.08371528   -0.35364149  -25.91850819
     atom   27 type  1   force =     0.03233129    0.60409983  -38.67602463
     atom   28 type  1   force =     0.03231669    0.60409328  -38.67601800
     atom   29 type  2   force =     0.28540501    2.17127335 -171.16893163
     atom   30 type  2   force =     0.28536417    2.17127120 -171.16896608
     atom   31 type  1   force =    -0.04397444    0.24269023  -61.05731579
     atom   32 type  1   force =    -0.04402282    0.24269359  -61.05738845
     atom   33 type  2   force =    -0.11756299   -3.01424092 -171.88723273
     atom   34 type  2   force =    -0.11758422   -3.01424876 -171.88711805
     atom   35 type  1   force =    -0.03902391   -0.86954156  -69.10852352
     atom   36 type  1   force =    -0.03906365   -0.86954462  -69.10859324
     atom   37 type  1   force =    -0.04845551    2.46011562  -92.60704358
     atom   38 type  1   force =    -0.04846182    2.46011708  -92.60704822
     atom   39 type  1   force =     1.08170966   -0.36390973  -95.55941283
     atom   40 type  1   force =     1.08170010   -0.36390145  -95.55938960
     atom   41 type  3   force =    -2.72081882   -0.74109843   16.54328266
     atom   42 type  3   force =    -2.72081882   -0.74109843  -16.54328266
     atom   43 type  3   force =    -2.72081883   -0.74112026   16.54331078
     atom   44 type  3   force =    -2.72081883   -0.74112026  -16.54331078
     atom   45 type  3   force =     0.03298049   -1.42742181   16.94980441
     atom   46 type  3   force =     0.03298049   -1.42742181  -16.94980441
     atom   47 type  3   force =     0.03297486   -1.42741922   16.94980580
     atom   48 type  3   force =     0.03297486   -1.42741922  -16.94980580
     The core correction contribution to forces
     atom    1 type  1   force =    -0.01709438   -0.00281065   -0.00289012
     atom    2 type  1   force =    -0.01709428   -0.00281077   -0.00288993
     atom    3 type  1   force =    -0.00003087   -0.01288918   -0.00194839
     atom    4 type  1   force =    -0.00003088   -0.01288917   -0.00194839
     atom    5 type  2   force =     0.00000000    0.00000000    0.00000000
     atom    6 type  2   force =     0.00000000    0.00000000    0.00000000
     atom    7 type  1   force =     0.00042724    0.00071221    0.00112203
     atom    8 type  1   force =     0.00042722    0.00071220    0.00112199
     atom    9 type  2   force =     0.00000000    0.00000000    0.00000000
     atom   10 type  2   force =     0.00000000    0.00000000    0.00000000
     atom   11 type  1   force =     0.00036047   -0.00047223   -0.00164102
     atom   12 type  1   force =     0.00036046   -0.00047222   -0.00164104
     atom   13 type  1   force =    -0.00009680   -0.00050915   -0.00033332
     atom   14 type  1   force =    -0.00009679   -0.00050910   -0.00033331
     atom   15 type  1   force =     0.00038385    0.00058438   -0.00008621
     atom   16 type  1   force =     0.00038385    0.00058437   -0.00008617
     atom   17 type  2   force =     0.00000000    0.00000000    0.00000000
     atom   18 type  2   force =     0.00000000    0.00000000    0.00000000
     atom   19 type  1   force =    -0.00049730   -0.00057424   -0.00000206
     atom   20 type  1   force =    -0.00049729   -0.00057424   -0.00000206
     atom   21 type  2   force =     0.00000000    0.00000000    0.00000000
     atom   22 type  2   force =     0.00000000    0.00000000    0.00000000
     atom   23 type  1   force =    -0.00052175    0.00054264   -0.00000195
     atom   24 type  1   force =    -0.00052175    0.00054265   -0.00000195
     atom   25 type  1   force =     0.00038380    0.00058460    0.00008395
     atom   26 type  1   force =     0.00038380    0.00058458    0.00008391
     atom   27 type  1   force =    -0.00009680   -0.00050928    0.00033104
     atom   28 type  1   force =    -0.00009680   -0.00050923    0.00033103
     atom   29 type  2   force =     0.00000000    0.00000000    0.00000000
     atom   30 type  2   force =     0.00000000    0.00000000    0.00000000
     atom   31 type  1   force =     0.00042724    0.00071234   -0.00112398
     atom   32 type  1   force =     0.00042721    0.00071233   -0.00112394
     atom   33 type  2   force =     0.00000000    0.00000000    0.00000000
     atom   34 type  2   force =     0.00000000    0.00000000    0.00000000
     atom   35 type  1   force =     0.00036049   -0.00047233    0.00163891
     atom   36 type  1   force =     0.00036048   -0.00047233    0.00163893
     atom   37 type  1   force =    -0.00003083   -0.01289101    0.00194462
     atom   38 type  1   force =    -0.00003085   -0.01289100    0.00194462
     atom   39 type  1   force =    -0.01709515   -0.00281069    0.00288760
     atom   40 type  1   force =    -0.01709505   -0.00281081    0.00288741
     atom   41 type  3   force =     0.00000000    0.00000000    0.00000000
     atom   42 type  3   force =     0.00000000    0.00000000    0.00000000
     atom   43 type  3   force =     0.00000000    0.00000000    0.00000000
     atom   44 type  3   force =     0.00000000    0.00000000    0.00000000
     atom   45 type  3   force =     0.00000000    0.00000000    0.00000000
     atom   46 type  3   force =     0.00000000    0.00000000    0.00000000
     atom   47 type  3   force =     0.00000000    0.00000000    0.00000000
     atom   48 type  3   force =     0.00000000    0.00000000    0.00000000
     The Hubbard contrib.    to forces
     atom    1 type  1   force =     0.00000000    0.00000000    0.00000000
     atom    2 type  1   force =     0.00000000    0.00000000    0.00000000
     atom    3 type  1   force =     0.00000000    0.00000000    0.00000000
     atom    4 type  1   force =     0.00000000    0.00000000    0.00000000
     atom    5 type  2   force =     0.00000000    0.00000000    0.00000000
     atom    6 type  2   force =     0.00000000    0.00000000    0.00000000
     atom    7 type  1   force =     0.00000000    0.00000000    0.00000000
     atom    8 type  1   force =     0.00000000    0.00000000    0.00000000
     atom    9 type  2   force =     0.00000000    0.00000000    0.00000000
     atom   10 type  2   force =     0.00000000    0.00000000    0.00000000
     atom   11 type  1   force =     0.00000000    0.00000000    0.00000000
     atom   12 type  1   force =     0.00000000    0.00000000    0.00000000
     atom   13 type  1   force =     0.00000000    0.00000000    0.00000000
     atom   14 type  1   force =     0.00000000    0.00000000    0.00000000
     atom   15 type  1   force =     0.00000000    0.00000000    0.00000000
     atom   16 type  1   force =     0.00000000    0.00000000    0.00000000
     atom   17 type  2   force =     0.00000000    0.00000000    0.00000000
     atom   18 type  2   force =     0.00000000    0.00000000    0.00000000
     atom   19 type  1   force =     0.00000000    0.00000000    0.00000000
     atom   20 type  1   force =     0.00000000    0.00000000    0.00000000
     atom   21 type  2   force =     0.00000000    0.00000000    0.00000000
     atom   22 type  2   force =     0.00000000    0.00000000    0.00000000
     atom   23 type  1   force =     0.00000000    0.00000000    0.00000000
     atom   24 type  1   force =     0.00000000    0.00000000    0.00000000
     atom   25 type  1   force =     0.00000000    0.00000000    0.00000000
     atom   26 type  1   force =     0.00000000    0.00000000    0.00000000
     atom   27 type  1   force =     0.00000000    0.00000000    0.00000000
     atom   28 type  1   force =     0.00000000    0.00000000    0.00000000
     atom   29 type  2   force =     0.00000000    0.00000000    0.00000000
     atom   30 type  2   force =     0.00000000    0.00000000    0.00000000
     atom   31 type  1   force =     0.00000000    0.00000000    0.00000000
     atom   32 type  1   force =     0.00000000    0.00000000    0.00000000
     atom   33 type  2   force =     0.00000000    0.00000000    0.00000000
     atom   34 type  2   force =     0.00000000    0.00000000    0.00000000
     atom   35 type  1   force =     0.00000000    0.00000000    0.00000000
     atom   36 type  1   force =     0.00000000    0.00000000    0.00000000
     atom   37 type  1   force =     0.00000000    0.00000000    0.00000000
     atom   38 type  1   force =     0.00000000    0.00000000    0.00000000
     atom   39 type  1   force =     0.00000000    0.00000000    0.00000000
     atom   40 type  1   force =     0.00000000    0.00000000    0.00000000
     atom   41 type  3   force =     0.00000000    0.00000000    0.00000000
     atom   42 type  3   force =     0.00000000    0.00000000    0.00000000
     atom   43 type  3   force =     0.00000000    0.00000000    0.00000000
     atom   44 type  3   force =     0.00000000    0.00000000    0.00000000
     atom   45 type  3   force =     0.00000000    0.00000000    0.00000000
     atom   46 type  3   force =     0.00000000    0.00000000    0.00000000
     atom   47 type  3   force =     0.00000000    0.00000000    0.00000000
     atom   48 type  3   force =     0.00000000    0.00000000    0.00000000
     The SCF correction term to forces
     atom    1 type  1   force =    -0.00000008    0.00000180    0.00000130
     atom    2 type  1   force =     0.00000022    0.00000160    0.00000024
     atom    3 type  1   force =    -0.00000048   -0.00000116    0.00000106
     atom    4 type  1   force =     0.00000013   -0.00000120    0.00000082
     atom    5 type  2   force =    -0.00000078   -0.00000141    0.00000051
     atom    6 type  2   force =     0.00000125   -0.00000138    0.00000050
     atom    7 type  1   force =    -0.00000112    0.00000075    0.00000018
     atom    8 type  1   force =     0.00000107    0.00000048    0.00000017
     atom    9 type  2   force =    -0.00000071    0.00000166    0.00000001
     atom   10 type  2   force =     0.00000019    0.00000165   -0.00000019
     atom   11 type  1   force =    -0.00000103   -0.00000027   -0.00000027
     atom   12 type  1   force =     0.00000115   -0.00000002   -0.00000025
     atom   13 type  1   force =    -0.00000030   -0.00000018   -0.00000019
     atom   14 type  1   force =     0.00000034   -0.00000017   -0.00000039
     atom   15 type  1   force =    -0.00000029    0.00000004   -0.00000103
     atom   16 type  1   force =     0.00000026    0.00000007   -0.00000014
     atom   17 type  2   force =    -0.00000110   -0.00000074   -0.00000002
     atom   18 type  2   force =    -0.00000035   -0.00000073   -0.00000002
     atom   19 type  1   force =    -0.00000062   -0.00000002   -0.00000001
     atom   20 type  1   force =     0.00000057    0.00000017   -0.00000001
     atom   21 type  2   force =    -0.00000066   -0.00000045   -0.00000002
     atom   22 type  2   force =     0.00000175   -0.00000045   -0.00000002
     atom   23 type  1   force =    -0.00000071    0.00000002   -0.00000001
     atom   24 type  1   force =     0.00000048   -0.00000017   -0.00000001
     atom   25 type  1   force =    -0.00000029    0.00000004    0.00000101
     atom   26 type  1   force =     0.00000026    0.00000007    0.00000012
     atom   27 type  1   force =    -0.00000029   -0.00000018    0.00000018
     atom   28 type  1   force =     0.00000034   -0.00000017    0.00000038
     atom   29 type  2   force =    -0.00000077   -0.00000141   -0.00000052
     atom   30 type  2   force =     0.00000125   -0.00000138   -0.00000051
     atom   31 type  1   force =    -0.00000112    0.00000075   -0.00000018
     atom   32 type  1   force =     0.00000107    0.00000048   -0.00000017
     atom   33 type  2   force =    -0.00000071    0.00000167   -0.00000002
     atom   34 type  2   force =     0.00000019    0.00000166    0.00000018
     atom   35 type  1   force =    -0.00000103   -0.00000027    0.00000027
     atom   36 type  1   force =     0.00000115   -0.00000002    0.00000024
     atom   37 type  1   force =    -0.00000048   -0.00000116   -0.00000105
     atom   38 type  1   force =     0.00000013   -0.00000120   -0.00000081
     atom   39 type  1   force =    -0.00000008    0.00000180   -0.00000129
     atom   40 type  1   force =     0.00000022    0.00000160   -0.00000023
     atom   41 type  3   force =    -0.00000010    0.00000017    0.00000019
     atom   42 type  3   force =    -0.00000010    0.00000017   -0.00000019
     atom   43 type  3   force =     0.00000004    0.00000017    0.00000012
     atom   44 type  3   force =     0.00000004    0.00000017   -0.00000012
     atom   45 type  3   force =    -0.00000004    0.00000002    0.00000016
     atom   46 type  3   force =    -0.00000004    0.00000002   -0.00000016
     atom   47 type  3   force =     0.00000002   -0.00000004    0.00000010
     atom   48 type  3   force =     0.00000002   -0.00000004   -0.00000010

     Total force =     0.000391     Total SCF correction =     0.000009
     Energy error            =      3.7E-07 Ry
     Gradient error          =      7.2E-05 Ry/Bohr

     bfgs converged in  20 scf cycles and  19 bfgs steps
     (criteria: energy <  1.0E-04 Ry, force <  1.0E-04 Ry/Bohr)

     End of BFGS Geometry Optimization

     Final energy             =   -3437.6898528111 Ry

     File /storage/home/mgm6007/ixd4/Maria/Strain1_Files/RuO2-110-0-0123/RuO2-110-0-0123.bfgs deleted, as requested
Begin final coordinates

ATOMIC_POSITIONS (crystal)
O            -0.0040977552        0.4416687735        0.2678508078
O             0.4959017134        0.4416686341        0.2678508696
O            -0.0046480954        0.0128620485        0.3018466348
O             0.4953517572        0.0128620439        0.3018466482
Ru            0.2453657886        0.0009472321        0.3585866667
Ru            0.7453657612        0.0009471133        0.3585866349
O             0.2529064542        0.3151202511        0.3612945782
O             0.7529061374        0.3151201652        0.3612944693
Ru            0.0022739197        0.5011211447        0.3564209801
Ru            0.5022739556        0.5011211911        0.3564210699
O             0.2533407472        0.6877524405        0.3511384834
O             0.7533404186        0.6877523350        0.3511383784
O            -0.0038568062       -0.0031310638        0.4111237512
O             0.4961432371       -0.0031306844        0.4111238052
O             0.0054364548        0.5120233357        0.4451153410
O             0.5054366288        0.5120233131        0.4451154480
Ru           -0.0036635314        0.0073201942        0.5000010000
Ru            0.4963364739        0.0073200890        0.5000010000
O             0.2449694864        0.1941869125        0.5000010000
O             0.7449693399        0.1941868676        0.5000010000
Ru            0.2568218808        0.5083876279        0.5000010000
Ru            0.7568219979        0.5083875867        0.5000010000
O             0.2454694455        0.8225023081        0.5000010000
O             0.7454698083        0.8225023066        0.5000010000
O             0.0054364548        0.5120233357        0.5548856590
O             0.5054366288        0.5120233131        0.5548855520
O            -0.0038568062       -0.0031310638        0.5888772488
O             0.4961432371       -0.0031306844        0.5888771948
Ru            0.2453657886        0.0009472321        0.6414143333
Ru            0.7453657612        0.0009471133        0.6414143651
O             0.2529064542        0.3151202511        0.6387064218
O             0.7529061374        0.3151201652        0.6387065307
Ru            0.0022739197        0.5011211447        0.6435800199
Ru            0.5022739556        0.5011211911        0.6435799301
O             0.2533407472        0.6877524405        0.6488625166
O             0.7533404186        0.6877523350        0.6488626216
O            -0.0046480954        0.0128620485        0.6981553652
O             0.4953517572        0.0128620439        0.6981553518
O            -0.0040977552        0.4416687735        0.7321501922
O             0.4959017134        0.4416686341        0.7321501304
H             0.1297210430        0.4713867097        0.2499150812
H             0.1297210430        0.4713867097        0.7500849188
H             0.6297191753        0.4713874602        0.2499146852
H             0.6297191753        0.4713874602        0.7500853148
H            -0.0056039913        0.1582668102        0.2781044388
H            -0.0056039913        0.1582668102        0.7218955612
H             0.4943960055        0.1582668000        0.2781044330
H             0.4943960055        0.1582668000        0.7218955670
End final coordinates



     Writing all to output data dir /storage/home/mgm6007/ixd4/Maria/Strain1_Files/RuO2-110-0-0123/RuO2-110-0-0123.save/
 
     init_run     :    157.53s CPU   2312.49s WALL (       1 calls)
     electrons    :  14658.02s CPU  94671.90s WALL (      20 calls)
     update_pot   :     32.53s CPU     32.58s WALL (      19 calls)
     forces       :     36.51s CPU     36.75s WALL (      20 calls)

     Called by init_run:
     wfcinit      :      0.99s CPU      0.99s WALL (       1 calls)
     potinit      :    104.36s CPU   1666.71s WALL (       1 calls)
     hinit0       :     51.73s CPU    644.20s WALL (       1 calls)

     Called by electrons:
     c_bands      :    796.97s CPU    801.75s WALL (     320 calls)
     sum_band     :    149.36s CPU    149.98s WALL (     320 calls)
     v_of_rho     :     46.35s CPU     46.60s WALL (     321 calls)
     newd         :     22.41s CPU     22.50s WALL (     321 calls)
     PAW_pot      :     39.67s CPU     39.72s WALL (     340 calls)
     mix_rho      :    247.26s CPU    248.53s WALL (     320 calls)

     Called by c_bands:
     init_us_2    :      9.41s CPU      9.49s WALL (    1360 calls)
     init_us_2:cp :      9.40s CPU      9.48s WALL (    1360 calls)
     cegterg      :    762.26s CPU    766.60s WALL (     640 calls)

     Called by *egterg:
     cdiaghg      :     92.69s CPU     92.99s WALL (    1711 calls)
     h_psi        :    406.31s CPU    408.77s WALL (    1789 calls)
     s_psi        :     59.56s CPU     59.99s WALL (    1789 calls)
     g_psi        :      1.98s CPU      1.99s WALL (    1147 calls)

     Called by h_psi:
     h_psi:calbec :     62.86s CPU     63.06s WALL (    1789 calls)
     vloc_psi     :    278.65s CPU    280.56s WALL (    1789 calls)
     add_vuspsi   :     59.88s CPU     60.19s WALL (    1789 calls)

     General routines
     calbec       :    101.22s CPU    101.64s WALL (    2627 calls)
     fft          :   2796.54s CPU   2799.24s WALL (    4391 calls)
     ffts         :     89.93s CPU     90.34s WALL (  129296 calls)
     fftw         :    262.25s CPU    263.86s WALL (  741304 calls)
     interpolate  :   2770.37s CPU   2772.98s WALL (     321 calls)
 
     Parallel routines
 
     Environ routines
 
     PWSCF        :      4h21m CPU   1d 4h44m WALL

 
   This run was terminated on:  20:55:16  19Jul2023            

=------------------------------------------------------------------------------=
   JOB DONE.
=------------------------------------------------------------------------------=
