
     Program PWSCF v.7.2 starts on 26Jul2023 at 11:21: 3 
        Git branch: heads/qe-7.2
        Last git commit: b4c5e8deeb7d1863e7553a87b45f8d22c21926a5
        Last git commit date: Mon Mar 27 16:12:09 2023 +0000
        Last git commit subject: Merge branch 'merge_fix_hubbard' into 'develop'

     This program is part of the open-source Quantum ESPRESSO suite
     for quantum simulation of materials; please cite
         "P. Giannozzi et al., J. Phys.:Condens. Matter 21 395502 (2009);
         "P. Giannozzi et al., J. Phys.:Condens. Matter 29 465901 (2017);
         "P. Giannozzi et al., J. Chem. Phys. 152 154105 (2020);
          URL http://www.quantum-espresso.org", 
     in publications or presentations arising from this work. More details at
     http://www.quantum-espresso.org/quote

     Parallel version (MPI), running on    20 processors

     MPI processes distributed on     1 nodes
     99427 MiB available memory on the printing compute node when the environment starts
 
     Reading input from RuO2-110-0-234.in

     Current dimensions of program PWSCF are:
     Max number of different atomic species (ntypx) = 10
     Max number of k-points (npk) =  40000
     Max angular momentum in pseudopotentials (lmaxx) =  4
 
     Reading input from environ.in:
     * Environ restarting
     * setting up water environment
     * using electronic solvent mode
     * setting boundary derivatives method to SCCS default
     
     file O.pbe-n-kjpaw_psl.0.1.UPF: wavefunction(s)  2P renormalized
     Message from routine setup:
     using ibrav=0 with symmetry is DISCOURAGED, use correct ibrav instead
 
     R & G space division:  proc/nbgrp/npool/nimage =      20
     Subspace diagonalization in iterative solution of the eigenvalue problem:
     one sub-group per band group will be used
     scalapack distributed-memory algorithm (size of sub-group:  2*  2 procs)

 
     Parallelization info
     --------------------
     sticks:   dense  smooth     PW     G-vecs:    dense   smooth      PW
     Min         276     110     29                54982    13912    1877
     Max         277     111     30                54993    13923    1888
     Sum        5537    2217    585              1099789   278381   37601
 
     Using Slab Decomposition
 


     bravais-lattice index     =            0
     lattice parameter (alat)  =      12.3824  a.u.
     unit-cell volume          =    5825.9133 (a.u.)^3
     number of atoms/cell      =           46
     number of atomic types    =            3
     number of electrons       =       366.00
     number of Kohn-Sham states=          220
     kinetic-energy cutoff     =      50.0000  Ry
     charge density cutoff     =     500.0000  Ry
     scf convergence threshold =      1.0E-09
     mixing beta               =       0.7000
     number of iterations used =            8  local-TF  mixing
     energy convergence thresh.=      1.0E-04
     force convergence thresh. =      1.0E-04
     Exchange-correlation= PBE
                           (   1   4   3   4   0   0   0)
     nstep                     =          200


     ================================================================================
 
                                  Environ Setup Summary

     ================================================================================
 
     Please cite

          O. Andreussi, I. Dabo and N. Marzari, J. Chem. Phys. 136, 064102 (2012)

     in publications or presentations arising from this work.

     ================================================================================
 
     Parameters
     ==========

     compensation onset threshold      =               0.1000E+00
     static permittivity               =                    78.30
     surface tension in input (dyn/cm) =                    47.90
     surface tension in internal units =               0.6153E-04
     external pressure in input (GPa)  =                    -0.36
     external pressure in inter. units =              -0.2447E-04

     Solvent Boundary
     ================

     solvent mode                      =               electronic
     derivatives method                =                    chain
     numerical core for derivatives    =                      fft
     switching function adopted        =                     SCCS
     density limit for vacuum region   =               0.5000E-02
     density limit for bulk solvent    =               0.1000E-03

     Electrostatic Setup
     ===================

     electrostatic problem to solve    =              generalized
     numerical solver adopted          =                       cg
     type of auxiliary density adopted =                     none
     numerical core for poisson        =                      fft
     type of pbc corrections           =                parabolic
     numerical core for corrections    =                      1da

     ================================================================================
 

     celldm(1)=  12.382447  celldm(2)=   0.000000  celldm(3)=   0.000000
     celldm(4)=   0.000000  celldm(5)=   0.000000  celldm(6)=   0.000000

     crystal axes: (cart. coord. in units of alat)
               a(1) = (   1.000000   0.000000   0.000000 )  
               a(2) = (   0.000000   0.908473   0.000000 )  
               a(3) = (   0.000000   0.000000   3.377790 )  

     reciprocal axes: (cart. coord. in units 2 pi/alat)
               b(1) = (  1.000000  0.000000  0.000000 )  
               b(2) = (  0.000000  1.100748  0.000000 )  
               b(3) = (  0.000000  0.000000  0.296052 )  


     PseudoPot. # 1 for O  read from file:
     /gpfs/group/ixd4/default/Simon/pseudopotentials/materialscloud/SSSP_1.3.0_PBE_efficiency/O.pbe-n-kjpaw_psl.0.1.UPF
     MD5 check sum: 0234752ac141de4415c5fc33072bef88
     Pseudo is Projector augmented-wave + core cor, Zval =  6.0
     Generated using "atomic" code by A. Dal Corso  v.5.0.99 svn rev. 10869
     Shape of augmentation charge: BESSEL
     Using radial grid of 1095 points,  4 beta functions with: 
                l(1) =   0
                l(2) =   0
                l(3) =   1
                l(4) =   1
     Q(r) pseudized with 0 coefficients 


     PseudoPot. # 2 for Ru read from file:
     /gpfs/group/ixd4/default/Simon/pseudopotentials/materialscloud/SSSP_1.3.0_PBE_efficiency/Ru_ONCV_PBE-1.0.oncvpsp.upf
     MD5 check sum: be037bb81c227cfb9b1461a9f099f4bd
     Pseudo is Norm-conserving, Zval = 16.0
     Generated using ONCVPSP code by D. R. Hamann
     Using radial grid of 1458 points,  6 beta functions with: 
                l(1) =   0
                l(2) =   0
                l(3) =   1
                l(4) =   1
                l(5) =   2
                l(6) =   2

     PseudoPot. # 3 for H  read from file:
     /gpfs/group/ixd4/default/Simon/pseudopotentials/materialscloud/SSSP_1.3.0_PBE_efficiency/H.pbe-rrkjus_psl.1.0.0.UPF
     MD5 check sum: f52b6d4d1c606e5624b1dc7b2218f220
     Pseudo is Ultrasoft, Zval =  1.0
     Generated using "atomic" code by A. Dal Corso  v.5.1
     Using radial grid of  929 points,  2 beta functions with: 
                l(1) =   0
                l(2) =   0
     Q(r) pseudized with 0 coefficients 


     atomic species   valence    mass     pseudopotential
        O              6.00    15.99940     O ( 1.00)
        Ru            16.00   101.07000     Ru( 1.00)
        H              1.00     1.00794     H ( 1.00)

      4 Sym. Ops. (no inversion) found



   Cartesian axes

     site n.     atom                  positions (alat units)
         1           O   tau(   1) = (   0.0000000   0.5267920   0.9357570  )
         2           O   tau(   2) = (   0.5000000   0.4441359   0.9240564  )
         3           O   tau(   3) = (   0.0000000  -0.0335119   0.9928829  )
         4           O   tau(   4) = (   0.5000000   0.0082140   1.0148161  )
         5           Ru  tau(   5) = (   0.2531947   0.0062346   1.2161241  )
         6           Ru  tau(   6) = (   0.7468053   0.0062346   1.2161241  )
         7           O   tau(   7) = (   0.2384386   0.2817774   1.1987575  )
         8           O   tau(   8) = (   0.7615614   0.2817774   1.1987575  )
         9           Ru  tau(   9) = (   0.0000000   0.4568182   1.1975386  )
        10           Ru  tau(  10) = (   0.5000000   0.4669724   1.1866997  )
        11           O   tau(  11) = (   0.2624216   0.6394728   1.2186181  )
        12           O   tau(  12) = (   0.7375784   0.6394728   1.2186181  )
        13           O   tau(  13) = (   0.0000000   0.0015904   1.3906080  )
        14           O   tau(  14) = (   0.5000000   0.0158100   1.3939362  )
        15           O   tau(  15) = (   0.0000000   0.4581605   1.5028556  )
        16           O   tau(  16) = (   0.5000000   0.4521538   1.4969041  )
        17           Ru  tau(  17) = (   0.0000000   0.0030632   1.6888985  )
        18           Ru  tau(  18) = (   0.5000000   0.0041220   1.6888985  )
        19           O   tau(  19) = (   0.2473866   0.1804064   1.6888985  )
        20           O   tau(  20) = (   0.7526134   0.1804064   1.6888985  )
        21           Ru  tau(  21) = (   0.2534607   0.4575268   1.6888985  )
        22           Ru  tau(  22) = (   0.7465393   0.4575268   1.6888985  )
        23           O   tau(  23) = (   0.2521555   0.7338807   1.6888985  )
        24           O   tau(  24) = (   0.7478445   0.7338807   1.6888985  )
        25           O   tau(  25) = (   0.0000000   0.4581605   1.8749381  )
        26           O   tau(  26) = (   0.5000000   0.4521538   1.8808896  )
        27           O   tau(  27) = (   0.0000000   0.0015904   1.9871857  )
        28           O   tau(  28) = (   0.5000000   0.0158100   1.9838575  )
        29           Ru  tau(  29) = (   0.2531947   0.0062346   2.1616696  )
        30           Ru  tau(  30) = (   0.7468053   0.0062346   2.1616696  )
        31           O   tau(  31) = (   0.2384386   0.2817774   2.1790362  )
        32           O   tau(  32) = (   0.7615614   0.2817774   2.1790362  )
        33           Ru  tau(  33) = (   0.0000000   0.4568182   2.1802551  )
        34           Ru  tau(  34) = (   0.5000000   0.4669724   2.1910940  )
        35           O   tau(  35) = (   0.2624216   0.6394728   2.1591756  )
        36           O   tau(  36) = (   0.7375784   0.6394728   2.1591756  )
        37           O   tau(  37) = (   0.0000000  -0.0335119   2.3849142  )
        38           O   tau(  38) = (   0.5000000   0.0082140   2.3629809  )
        39           O   tau(  39) = (   0.0000000   0.5267920   2.4420367  )
        40           O   tau(  40) = (   0.5000000   0.4441359   2.4537373  )
        41           H   tau(  41) = (   0.0000000   0.0445915   0.8702728  )
        42           H   tau(  42) = (   0.0000000   0.0445915   2.5075175  )
        43           H   tau(  43) = (   0.5000000   0.1115990   0.9186842  )
        44           H   tau(  44) = (   0.5000000   0.1115990   2.4591062  )
        45           H   tau(  45) = (   0.0000000   0.7336076   0.9480611  )
        46           H   tau(  46) = (   0.0000000   0.7336076   2.4297293  )

     number of k points=     1  Marzari-Vanderbilt smearing, width (Ry)=  0.0300
                       cart. coord. in units 2pi/alat
        k(    1) = (   0.2500000   0.2751871   0.0000000), wk =   2.0000000

     Dense  grid:  1099789 G-vectors     FFT dimensions: (  90,  81, 300)

     Smooth grid:   278381 G-vectors     FFT dimensions: (  60,  54, 192)

     Estimated max dynamical RAM per process >     168.67 MB

     Estimated total dynamical RAM >       3.29 GB

     Check: negative core charge=   -0.000001

     Initial potential from superposition of free atoms

     starting charge     365.9933, renormalised to     366.0000

     add environment contribution to local potential
     Polarization accuracy = 3.0E-12, # of iterations =  24

     negative rho (up, down):  3.440E-05 0.000E+00
     Starting wfcs are  238 randomized atomic wfcs
     Checking if some PAW data can be deallocated... 

     total cpu time spent up to now is     1056.5 secs

     per-process dynamical memory:   138.3 Mb

     Self-consistent Calculation

     iteration #  1     ecut=    50.00 Ry     beta= 0.70
     Davidson diagonalization with overlap
     ethr =  1.00E-02,  avg # of iterations =  2.0

     total cpu time spent up to now is     1353.0 secs

     total energy              =   -3432.52940379 Ry
     estimated scf accuracy    <      10.00331252 Ry
     electrostatic embedding   =      -0.00169040 Ry
     cavitation energy         =       0.01941531 Ry
     PV energy                 =      -0.08355420 Ry
     correction to one-el term =     220.95969849 Ry

     iteration #  2     ecut=    50.00 Ry     beta= 0.70
     Davidson diagonalization with overlap
     ethr =  2.73E-03,  avg # of iterations =  2.0

     total cpu time spent up to now is     1598.8 secs

     total energy              =   -3434.63491255 Ry
     estimated scf accuracy    <       2.68460033 Ry
     electrostatic embedding   =      -0.00266576 Ry
     cavitation energy         =       0.01939661 Ry
     PV energy                 =      -0.08415035 Ry
     correction to one-el term =     220.96250657 Ry

     iteration #  3     ecut=    50.00 Ry     beta= 0.70
     Davidson diagonalization with overlap
     ethr =  7.33E-04,  avg # of iterations =  1.0

     total cpu time spent up to now is     1878.7 secs

     total energy              =   -3434.86426735 Ry
     estimated scf accuracy    <       0.34160219 Ry
     electrostatic embedding   =      -0.00314924 Ry
     cavitation energy         =       0.01940047 Ry
     PV energy                 =      -0.08452264 Ry
     correction to one-el term =     220.96389651 Ry

     iteration #  4     ecut=    50.00 Ry     beta= 0.70
     Davidson diagonalization with overlap
     ethr =  9.33E-05,  avg # of iterations =  2.0

     total cpu time spent up to now is     2147.2 secs

     total energy              =   -3434.89526091 Ry
     estimated scf accuracy    <       0.67286835 Ry
     electrostatic embedding   =      -0.00335113 Ry
     cavitation energy         =       0.01962803 Ry
     PV energy                 =      -0.08404648 Ry
     correction to one-el term =     220.96404169 Ry

     iteration #  5     ecut=    50.00 Ry     beta= 0.70
     Davidson diagonalization with overlap
     ethr =  9.33E-05,  avg # of iterations =  8.0

     total cpu time spent up to now is     2460.8 secs

     total energy              =   -3434.88309588 Ry
     estimated scf accuracy    <       0.28269717 Ry
     electrostatic embedding   =      -0.00353618 Ry
     cavitation energy         =       0.01983345 Ry
     PV energy                 =      -0.08366883 Ry
     correction to one-el term =     220.96426497 Ry

     iteration #  6     ecut=    50.00 Ry     beta= 0.70
     Davidson diagonalization with overlap
     ethr =  7.72E-05,  avg # of iterations =  6.0

     total cpu time spent up to now is     2722.4 secs

     total energy              =   -3434.87472117 Ry
     estimated scf accuracy    <       0.21546483 Ry
     electrostatic embedding   =      -0.00368295 Ry
     cavitation energy         =       0.02033644 Ry
     PV energy                 =      -0.08249276 Ry
     correction to one-el term =     220.96405389 Ry

     iteration #  7     ecut=    50.00 Ry     beta= 0.70
     Davidson diagonalization with overlap
     ethr =  5.89E-05,  avg # of iterations =  3.0

     total cpu time spent up to now is     2977.8 secs

     total energy              =   -3434.86995380 Ry
     estimated scf accuracy    <       0.13387772 Ry
     electrostatic embedding   =      -0.00364325 Ry
     cavitation energy         =       0.02065969 Ry
     PV energy                 =      -0.08162000 Ry
     correction to one-el term =     220.96358382 Ry

     iteration #  8     ecut=    50.00 Ry     beta= 0.70
     Davidson diagonalization with overlap
     ethr =  3.66E-05,  avg # of iterations =  8.0

     add environment contribution to local potential
     Polarization accuracy = 5.5E-12, # of iterations =  44

     total cpu time spent up to now is     3241.9 secs

     total energy              =   -3434.86575726 Ry
     estimated scf accuracy    <       0.04469734 Ry
     electrostatic embedding   =      -0.00344603 Ry
     cavitation energy         =       0.02117928 Ry
     PV energy                 =      -0.08032434 Ry
     correction to one-el term =     220.96251434 Ry

     iteration #  9     ecut=    50.00 Ry     beta= 0.70
     Davidson diagonalization with overlap
     ethr =  1.22E-05,  avg # of iterations = 10.0

     total cpu time spent up to now is     3534.9 secs

     total energy              =   -3434.93622213 Ry
     estimated scf accuracy    <       0.30642925 Ry
     electrostatic embedding   =      -0.06758075 Ry
     cavitation energy         =       0.02145398 Ry
     PV energy                 =      -0.07966301 Ry
     correction to one-el term =     179.59086228 Ry

     iteration # 10     ecut=    50.00 Ry     beta= 0.70
     Davidson diagonalization with overlap
     ethr =  1.22E-05,  avg # of iterations =  1.0

     total cpu time spent up to now is     3823.1 secs

     total energy              =   -3434.91942270 Ry
     estimated scf accuracy    <       0.21934646 Ry
     electrostatic embedding   =      -0.06804007 Ry
     cavitation energy         =       0.02147725 Ry
     PV energy                 =      -0.07957994 Ry
     correction to one-el term =     179.59237920 Ry

     iteration # 11     ecut=    50.00 Ry     beta= 0.70
     Davidson diagonalization with overlap
     ethr =  1.22E-05,  avg # of iterations =  2.0

     add environment contribution to local potential
     Polarization accuracy = 3.0E-12, # of iterations =  44

     total cpu time spent up to now is     4131.2 secs

     total energy              =   -3434.91752002 Ry
     estimated scf accuracy    <       0.01809413 Ry
     electrostatic embedding   =      -0.07028297 Ry
     cavitation energy         =       0.02133266 Ry
     PV energy                 =      -0.07952288 Ry
     correction to one-el term =     179.59890402 Ry

     iteration # 12     ecut=    50.00 Ry     beta= 0.70
     Davidson diagonalization with overlap
     ethr =  4.94E-06,  avg # of iterations =  3.0

     negative rho (up, down):  1.133E-03 0.000E+00

     add environment contribution to local potential
     Polarization accuracy = 4.9E-12, # of iterations =  45

     total cpu time spent up to now is     4457.9 secs

     total energy              =   -3434.92723567 Ry
     estimated scf accuracy    <       0.01517034 Ry
     electrostatic embedding   =      -0.08155415 Ry
     cavitation energy         =       0.02118705 Ry
     PV energy                 =      -0.07956913 Ry
     correction to one-el term =     180.94834074 Ry

     iteration # 13     ecut=    50.00 Ry     beta= 0.70
     Davidson diagonalization with overlap
     ethr =  4.14E-06,  avg # of iterations =  4.0

     negative rho (up, down):  1.513E-03 0.000E+00

     add environment contribution to local potential
     Polarization accuracy = 3.8E-12, # of iterations =  46

     total cpu time spent up to now is     4747.0 secs

     total energy              =   -3434.93047876 Ry
     estimated scf accuracy    <       0.00373976 Ry
     electrostatic embedding   =      -0.09249388 Ry
     cavitation energy         =       0.02112961 Ry
     PV energy                 =      -0.07945084 Ry
     correction to one-el term =     181.21244714 Ry

     iteration # 14     ecut=    50.00 Ry     beta= 0.70
     Davidson diagonalization with overlap
     ethr =  1.02E-06,  avg # of iterations =  5.0

     negative rho (up, down):  5.726E-04 0.000E+00

     add environment contribution to local potential
     Polarization accuracy = 3.4E-12, # of iterations =  45

     total cpu time spent up to now is     5023.4 secs

     total energy              =   -3434.93131590 Ry
     estimated scf accuracy    <       0.00439085 Ry
     electrostatic embedding   =      -0.09610191 Ry
     cavitation energy         =       0.02106919 Ry
     PV energy                 =      -0.07949291 Ry
     correction to one-el term =     181.65060798 Ry

     iteration # 15     ecut=    50.00 Ry     beta= 0.70
     Davidson diagonalization with overlap
     ethr =  1.02E-06,  avg # of iterations =  6.0

     negative rho (up, down):  1.730E-04 0.000E+00

     add environment contribution to local potential
     Polarization accuracy = 9.1E-12, # of iterations =  44

     total cpu time spent up to now is     5310.0 secs

     total energy              =   -3434.93193434 Ry
     estimated scf accuracy    <       0.00427279 Ry
     electrostatic embedding   =      -0.10026665 Ry
     cavitation energy         =       0.02096410 Ry
     PV energy                 =      -0.07963075 Ry
     correction to one-el term =     182.50852008 Ry

     iteration # 16     ecut=    50.00 Ry     beta= 0.70
     Davidson diagonalization with overlap
     ethr =  1.02E-06,  avg # of iterations =  5.0

     add environment contribution to local potential
     Polarization accuracy = 3.3E-12, # of iterations =  43

     total cpu time spent up to now is     5611.7 secs

     total energy              =   -3434.93179009 Ry
     estimated scf accuracy    <       0.00495658 Ry
     electrostatic embedding   =      -0.10151755 Ry
     cavitation energy         =       0.02090940 Ry
     PV energy                 =      -0.07971201 Ry
     correction to one-el term =     183.04101122 Ry

     iteration # 17     ecut=    50.00 Ry     beta= 0.70
     Davidson diagonalization with overlap
     ethr =  1.02E-06,  avg # of iterations =  6.0

     negative rho (up, down):  1.374E-07 0.000E+00

     add environment contribution to local potential
     Polarization accuracy = 1.9E-12, # of iterations =  43

     total cpu time spent up to now is     5898.8 secs

     total energy              =   -3434.93208079 Ry
     estimated scf accuracy    <       0.00132035 Ry
     electrostatic embedding   =      -0.09902871 Ry
     cavitation energy         =       0.02086549 Ry
     PV energy                 =      -0.07985425 Ry
     correction to one-el term =     183.79426159 Ry

     iteration # 18     ecut=    50.00 Ry     beta= 0.70
     Davidson diagonalization with overlap
     ethr =  3.61E-07,  avg # of iterations =  7.0

     negative rho (up, down):  2.567E-04 0.000E+00

     add environment contribution to local potential
     Polarization accuracy = 2.2E-12, # of iterations =  43

     total cpu time spent up to now is     6205.6 secs

     total energy              =   -3434.93217453 Ry
     estimated scf accuracy    <       0.00028629 Ry
     electrostatic embedding   =      -0.09818449 Ry
     cavitation energy         =       0.02084312 Ry
     PV energy                 =      -0.07991067 Ry
     correction to one-el term =     184.15341901 Ry

     iteration # 19     ecut=    50.00 Ry     beta= 0.70
     Davidson diagonalization with overlap
     ethr =  7.82E-08,  avg # of iterations =  6.0

     negative rho (up, down):  7.602E-04 0.000E+00

     add environment contribution to local potential
     Polarization accuracy = 2.5E-12, # of iterations =  43

     total cpu time spent up to now is     6487.8 secs

     total energy              =   -3434.93221694 Ry
     estimated scf accuracy    <       0.00015451 Ry
     electrostatic embedding   =      -0.09707547 Ry
     cavitation energy         =       0.02083798 Ry
     PV energy                 =      -0.07990654 Ry
     correction to one-el term =     184.46348189 Ry

     iteration # 20     ecut=    50.00 Ry     beta= 0.70
     Davidson diagonalization with overlap
     ethr =  4.22E-08,  avg # of iterations =  3.0

     negative rho (up, down):  3.980E-04 0.000E+00

     add environment contribution to local potential
     Polarization accuracy = 2.6E-12, # of iterations =  43

     total cpu time spent up to now is     6809.8 secs

     total energy              =   -3434.93225354 Ry
     estimated scf accuracy    <       0.00003581 Ry
     electrostatic embedding   =      -0.09539335 Ry
     cavitation energy         =       0.02083920 Ry
     PV energy                 =      -0.07989612 Ry
     correction to one-el term =     184.69182180 Ry

     iteration # 21     ecut=    50.00 Ry     beta= 0.70
     Davidson diagonalization with overlap
     ethr =  9.78E-09,  avg # of iterations =  3.0

     negative rho (up, down):  1.966E-04 0.000E+00

     add environment contribution to local potential
     Polarization accuracy = 2.8E-12, # of iterations =  43

     total cpu time spent up to now is     7101.6 secs

     total energy              =   -3434.93227438 Ry
     estimated scf accuracy    <       0.00001761 Ry
     electrostatic embedding   =      -0.09448429 Ry
     cavitation energy         =       0.02084061 Ry
     PV energy                 =      -0.07988512 Ry
     correction to one-el term =     184.76499435 Ry

     iteration # 22     ecut=    50.00 Ry     beta= 0.70
     Davidson diagonalization with overlap
     ethr =  4.81E-09,  avg # of iterations =  3.0

     negative rho (up, down):  1.628E-04 0.000E+00

     add environment contribution to local potential
     Polarization accuracy = 3.0E-12, # of iterations =  43

     total cpu time spent up to now is     7344.7 secs

     total energy              =   -3434.93228258 Ry
     estimated scf accuracy    <       0.00000495 Ry
     electrostatic embedding   =      -0.09400709 Ry
     cavitation energy         =       0.02084325 Ry
     PV energy                 =      -0.07987598 Ry
     correction to one-el term =     184.79393155 Ry

     iteration # 23     ecut=    50.00 Ry     beta= 0.70
     Davidson diagonalization with overlap
     ethr =  1.35E-09,  avg # of iterations =  4.0

     negative rho (up, down):  5.308E-05 0.000E+00

     add environment contribution to local potential
     Polarization accuracy = 3.1E-12, # of iterations =  43

     total cpu time spent up to now is     7594.7 secs

     total energy              =   -3434.93229014 Ry
     estimated scf accuracy    <       0.00000148 Ry
     electrostatic embedding   =      -0.09356626 Ry
     cavitation energy         =       0.02084297 Ry
     PV energy                 =      -0.07986871 Ry
     correction to one-el term =     184.81383910 Ry

     iteration # 24     ecut=    50.00 Ry     beta= 0.70
     Davidson diagonalization with overlap
     ethr =  4.06E-10,  avg # of iterations =  4.0

     negative rho (up, down):  1.566E-04 0.000E+00

     add environment contribution to local potential
     Polarization accuracy = 3.1E-12, # of iterations =  43

     total cpu time spent up to now is     7908.9 secs

     total energy              =   -3434.93229184 Ry
     estimated scf accuracy    <       0.00000046 Ry
     electrostatic embedding   =      -0.09334879 Ry
     cavitation energy         =       0.02084560 Ry
     PV energy                 =      -0.07986449 Ry
     correction to one-el term =     184.79807620 Ry

     iteration # 25     ecut=    50.00 Ry     beta= 0.70
     Davidson diagonalization with overlap
     ethr =  1.26E-10,  avg # of iterations =  3.0

     negative rho (up, down):  1.429E-04 0.000E+00

     add environment contribution to local potential
     Polarization accuracy = 3.0E-12, # of iterations =  44

     total cpu time spent up to now is     8195.3 secs

     total energy              =   -3434.93229262 Ry
     estimated scf accuracy    <       0.00000026 Ry
     electrostatic embedding   =      -0.09322835 Ry
     cavitation energy         =       0.02084552 Ry
     PV energy                 =      -0.07986632 Ry
     correction to one-el term =     184.81935741 Ry

     iteration # 26     ecut=    50.00 Ry     beta= 0.70
     Davidson diagonalization with overlap
     ethr =  7.15E-11,  avg # of iterations =  3.0

     negative rho (up, down):  2.013E-04 0.000E+00

     add environment contribution to local potential
     Polarization accuracy = 3.1E-12, # of iterations =  43

     total cpu time spent up to now is     8506.2 secs

     total energy              =   -3434.93229271 Ry
     estimated scf accuracy    <       0.00000023 Ry
     electrostatic embedding   =      -0.09315809 Ry
     cavitation energy         =       0.02084606 Ry
     PV energy                 =      -0.07986573 Ry
     correction to one-el term =     184.82033276 Ry

     iteration # 27     ecut=    50.00 Ry     beta= 0.70
     Davidson diagonalization with overlap
     ethr =  6.20E-11,  avg # of iterations =  2.0

     negative rho (up, down):  1.848E-04 0.000E+00

     add environment contribution to local potential
     Polarization accuracy = 2.9E-12, # of iterations =  44

     total cpu time spent up to now is     8785.2 secs

     total energy              =   -3434.93229317 Ry
     estimated scf accuracy    <       0.00000010 Ry
     electrostatic embedding   =      -0.09318449 Ry
     cavitation energy         =       0.02084606 Ry
     PV energy                 =      -0.07986818 Ry
     correction to one-el term =     184.82056874 Ry

     iteration # 28     ecut=    50.00 Ry     beta= 0.70
     Davidson diagonalization with overlap
     ethr =  2.80E-11,  avg # of iterations =  2.0

     negative rho (up, down):  1.719E-04 0.000E+00

     add environment contribution to local potential
     Polarization accuracy = 3.1E-12, # of iterations =  43

     total cpu time spent up to now is     9090.3 secs

     total energy              =   -3434.93229348 Ry
     estimated scf accuracy    <       0.00000009 Ry
     electrostatic embedding   =      -0.09316025 Ry
     cavitation energy         =       0.02084625 Ry
     PV energy                 =      -0.07986851 Ry
     correction to one-el term =     184.82034478 Ry

     iteration # 29     ecut=    50.00 Ry     beta= 0.70
     Davidson diagonalization with overlap
     ethr =  2.44E-11,  avg # of iterations =  3.0

     negative rho (up, down):  1.392E-04 0.000E+00

     add environment contribution to local potential
     Polarization accuracy = 4.5E-12, # of iterations =  43

     total cpu time spent up to now is     9393.6 secs

     total energy              =   -3434.93229403 Ry
     estimated scf accuracy    <       0.00000007 Ry
     electrostatic embedding   =      -0.09311329 Ry
     cavitation energy         =       0.02084643 Ry
     PV energy                 =      -0.07986905 Ry
     correction to one-el term =     184.82269488 Ry

     iteration # 30     ecut=    50.00 Ry     beta= 0.70
     Davidson diagonalization with overlap
     ethr =  1.79E-11,  avg # of iterations =  3.0

     negative rho (up, down):  1.335E-04 0.000E+00

     add environment contribution to local potential
     Polarization accuracy = 3.1E-12, # of iterations =  43

     total cpu time spent up to now is     9699.6 secs

     total energy              =   -3434.93229427 Ry
     estimated scf accuracy    <       0.00000005 Ry
     electrostatic embedding   =      -0.09307229 Ry
     cavitation energy         =       0.02084652 Ry
     PV energy                 =      -0.07986837 Ry
     correction to one-el term =     184.82275094 Ry

     iteration # 31     ecut=    50.00 Ry     beta= 0.70
     Davidson diagonalization with overlap
     ethr =  1.47E-11,  avg # of iterations =  2.0

     negative rho (up, down):  1.367E-04 0.000E+00

     add environment contribution to local potential
     Polarization accuracy = 2.9E-12, # of iterations =  44

     total cpu time spent up to now is     9981.9 secs

     total energy              =   -3434.93229469 Ry
     estimated scf accuracy    <       0.00000005 Ry
     electrostatic embedding   =      -0.09305580 Ry
     cavitation energy         =       0.02084651 Ry
     PV energy                 =      -0.07986851 Ry
     correction to one-el term =     184.82374657 Ry

     iteration # 32     ecut=    50.00 Ry     beta= 0.70
     Davidson diagonalization with overlap
     ethr =  1.33E-11,  avg # of iterations =  3.0

     negative rho (up, down):  1.398E-04 0.000E+00

     add environment contribution to local potential
     Polarization accuracy = 3.0E-12, # of iterations =  43

     total cpu time spent up to now is    10259.1 secs

     total energy              =   -3434.93229549 Ry
     estimated scf accuracy    <       0.00000005 Ry
     electrostatic embedding   =      -0.09302349 Ry
     cavitation energy         =       0.02084649 Ry
     PV energy                 =      -0.07986867 Ry
     correction to one-el term =     184.82625720 Ry

     iteration # 33     ecut=    50.00 Ry     beta= 0.70
     Davidson diagonalization with overlap
     ethr =  1.31E-11,  avg # of iterations =  3.0

     negative rho (up, down):  1.613E-04 0.000E+00

     add environment contribution to local potential
     Polarization accuracy = 3.0E-12, # of iterations =  43

     total cpu time spent up to now is    10557.8 secs

     total energy              =   -3434.93229693 Ry
     estimated scf accuracy    <       0.00000004 Ry
     electrostatic embedding   =      -0.09298814 Ry
     cavitation energy         =       0.02084644 Ry
     PV energy                 =      -0.07986866 Ry
     correction to one-el term =     184.82925373 Ry

     iteration # 34     ecut=    50.00 Ry     beta= 0.70
     Davidson diagonalization with overlap
     ethr =  9.91E-12,  avg # of iterations =  5.0

     negative rho (up, down):  1.746E-04 0.000E+00

     add environment contribution to local potential
     Polarization accuracy = 3.0E-12, # of iterations =  43

     total cpu time spent up to now is    10867.6 secs

     total energy              =   -3434.93229940 Ry
     estimated scf accuracy    <       0.00000003 Ry
     electrostatic embedding   =      -0.09296341 Ry
     cavitation energy         =       0.02084649 Ry
     PV energy                 =      -0.07986932 Ry
     correction to one-el term =     184.83248773 Ry

     iteration # 35     ecut=    50.00 Ry     beta= 0.70
     Davidson diagonalization with overlap
     ethr =  7.04E-12,  avg # of iterations =  5.0

     negative rho (up, down):  1.670E-04 0.000E+00

     add environment contribution to local potential
     Polarization accuracy = 2.8E-12, # of iterations =  44

     total cpu time spent up to now is    11157.6 secs

     total energy              =   -3434.93230314 Ry
     estimated scf accuracy    <       0.00000002 Ry
     electrostatic embedding   =      -0.09296981 Ry
     cavitation energy         =       0.02084649 Ry
     PV energy                 =      -0.07986959 Ry
     correction to one-el term =     184.83356158 Ry

     iteration # 36     ecut=    50.00 Ry     beta= 0.70
     Davidson diagonalization with overlap
     ethr =  4.84E-12,  avg # of iterations =  5.0

     negative rho (up, down):  1.517E-04 0.000E+00

     add environment contribution to local potential
     Polarization accuracy = 2.9E-12, # of iterations =  43

     total cpu time spent up to now is    11447.9 secs

     total energy              =   -3434.93230755 Ry
     estimated scf accuracy    <          7.4E-09 Ry
     electrostatic embedding   =      -0.09299136 Ry
     cavitation energy         =       0.02084653 Ry
     PV energy                 =      -0.07986934 Ry
     correction to one-el term =     184.83185888 Ry

     iteration # 37     ecut=    50.00 Ry     beta= 0.70
     Davidson diagonalization with overlap
     ethr =  2.01E-12,  avg # of iterations =  5.0

     negative rho (up, down):  1.434E-04 0.000E+00

     add environment contribution to local potential
     Polarization accuracy = 3.3E-12, # of iterations =  43

     total cpu time spent up to now is    11788.0 secs

     total energy              =   -3434.93231150 Ry
     estimated scf accuracy    <          1.3E-09 Ry
     electrostatic embedding   =      -0.09302414 Ry
     cavitation energy         =       0.02084654 Ry
     PV energy                 =      -0.07986887 Ry
     correction to one-el term =     184.82833291 Ry

     iteration # 38     ecut=    50.00 Ry     beta= 0.70
     Davidson diagonalization with overlap
     ethr =  3.42E-13,  avg # of iterations =  4.0

     negative rho (up, down):  1.442E-04 0.000E+00

     the potential shift due to the Gaussian-smeared nuclei is    -1.3426 ev

     total cpu time spent up to now is    12090.0 secs

     End of self-consistent calculation

          k = 0.2500 0.2752 0.0000 ( 34780 PWs)   bands (ev):

   -77.5277 -77.5153 -77.3931 -77.3809 -76.8200 -76.8165 -76.8082 -76.8047
   -76.7788 -76.7753 -76.5671 -76.5488 -48.0378 -48.0255 -47.7875 -47.7753
   -47.4783 -47.4660 -47.3651 -47.3529 -47.3275 -47.3157 -47.3105 -47.2986
   -47.2856 -47.2807 -47.1621 -47.1497 -47.0823 -47.0701 -46.8302 -46.7551
   -46.7327 -46.7190 -46.6723 -46.6605 -46.6430 -46.6345 -46.6219 -46.6149
   -46.6032 -46.5707 -46.5686 -46.5643 -46.5568 -46.4816 -46.4320 -46.3981
   -25.7636 -25.7467 -23.5983 -23.5446 -23.2796 -23.2565 -23.1855 -23.1156
   -23.0975 -22.8423 -22.6027 -22.3727 -22.3533 -22.3423 -22.3147 -22.2489
   -22.2194 -22.0999 -22.0374 -21.9754 -21.8874 -21.8366 -21.7839 -21.6670
   -21.3743 -21.2120 -21.2007 -21.0947 -13.3582 -13.3407 -11.8200 -11.7593
   -11.6764 -11.5006 -11.4354 -11.3724 -11.3379 -11.1584 -11.1255 -10.9305
   -10.7278 -10.7069 -10.5939 -10.5589 -10.5239 -10.4698 -10.3402 -10.2691
   -10.1994 -10.1678 -10.1304 -10.0701  -9.9485  -9.9078  -9.7661  -9.6541
    -9.6022  -9.5709  -9.3729  -9.2275  -9.1506  -9.0629  -9.0212  -8.9336
    -8.8278  -8.7746  -8.7716  -8.7128  -8.6356  -8.5790  -8.5064  -8.4675
    -8.3627  -8.3477  -8.2535  -8.0718  -8.0483  -7.9833  -7.9090  -7.8904
    -7.7910  -7.7513  -7.7173  -7.7023  -7.6010  -7.5618  -7.5367  -7.4774
    -7.4009  -7.3259  -7.2482  -7.2149  -7.1885  -7.0225  -6.9935  -6.8090
    -6.7587  -6.5554  -6.5472  -6.5067  -6.3101  -6.2638  -6.2436  -6.1437
    -6.1361  -6.0857  -5.9701  -5.9282  -5.8863  -5.8827  -5.7229  -5.5957
    -4.5846  -4.5446  -4.3762  -4.3162  -4.2445  -4.2052  -4.1883  -4.1176
    -4.1054  -4.0829  -4.0033  -3.9722  -3.9255  -3.8539  -3.8465  -3.7921
    -3.7242  -3.7085  -3.6730  -3.6268  -3.5516  -3.5423  -3.3146  -3.1774
    -3.1152  -3.1138  -2.9748  -2.9450  -2.6439  -2.5975  -2.5379  -2.4212
    -2.3242  -2.3049  -2.0802  -2.0335  -1.8524  -1.5800  -1.4232  -1.3601
    -1.1591  -0.9550  -0.8009  -0.4900  -0.4142   0.0063   0.0896   0.1139
     0.2491   0.4726   0.5315   0.6504   0.8485   0.9934   1.0421   1.3040
     1.3461   1.4739   1.5220   1.6615

     the Fermi energy is    -3.3374 ev

!    total energy              =   -3434.93231255 Ry
     estimated scf accuracy    <          3.9E-10 Ry
     smearing contrib. (-TS)   =       0.06381753 Ry
     internal energy E=F+TS    =   -3434.99613008 Ry

     The total energy is F=E-TS. E is the sum of the following terms:
     one-electron contribution =  -25708.65355647 Ry
     hartree contribution      =   12843.74089758 Ry
     xc contribution           =    -448.85040311 Ry
     ewald contribution        =    9960.59612638 Ry
     one-center paw contrib.   =    -266.50353342 Ry
     electrostatic embedding   =      -0.09303907 Ry
     cavitation energy         =       0.02084650 Ry
     PV energy                 =      -0.07986855 Ry
     correction to one-el term =     184.82640008 Ry

     WARNING: you are using the parabolic pbc correction;
              the potential shift above must be added to 
              band and Fermi energies.

     convergence has been achieved in  38 iterations

     negative rho (up, down):  1.442E-04 0.000E+00

     Forces acting on atoms (cartesian axes, Ry/au):

     atom    1 type  1   force =     0.00000000   -0.04475969   -0.03391029
     atom    2 type  1   force =     0.00000000   -0.00369986   -0.02099887
     atom    3 type  1   force =     0.00000000    0.13133111    0.08075227
     atom    4 type  1   force =     0.00000000   -0.09196762    0.08780089
     atom    5 type  2   force =     0.01187889    0.00696992   -0.00609199
     atom    6 type  2   force =    -0.01187889    0.00696992   -0.00609199
     atom    7 type  1   force =     0.00125306    0.06699965   -0.00823092
     atom    8 type  1   force =    -0.00125306    0.06699965   -0.00823092
     atom    9 type  2   force =     0.00000000    0.01052456    0.03063319
     atom   10 type  2   force =     0.00000000   -0.02818273    0.01596505
     atom   11 type  1   force =    -0.01029255   -0.07191579   -0.00003646
     atom   12 type  1   force =     0.01029255   -0.07191579   -0.00003646
     atom   13 type  1   force =     0.00000000    0.00216733    0.01101465
     atom   14 type  1   force =     0.00000000    0.00085745    0.00079513
     atom   15 type  1   force =     0.00000000    0.00075948   -0.00178760
     atom   16 type  1   force =     0.00000000    0.00191599    0.00573423
     atom   17 type  2   force =     0.00000000   -0.00491815    0.00000000
     atom   18 type  2   force =     0.00000000   -0.00138740    0.00000000
     atom   19 type  1   force =    -0.00352425   -0.07879771    0.00000000
     atom   20 type  1   force =     0.00352425   -0.07879771    0.00000000
     atom   21 type  2   force =    -0.00258519   -0.00395762    0.00000000
     atom   22 type  2   force =     0.00258519   -0.00395762    0.00000000
     atom   23 type  1   force =    -0.00323322    0.08160339    0.00000000
     atom   24 type  1   force =     0.00323322    0.08160339    0.00000000
     atom   25 type  1   force =     0.00000000    0.00075948    0.00178760
     atom   26 type  1   force =     0.00000000    0.00191599   -0.00573423
     atom   27 type  1   force =     0.00000000    0.00216733   -0.01101465
     atom   28 type  1   force =     0.00000000    0.00085745   -0.00079513
     atom   29 type  2   force =     0.01187889    0.00696992    0.00609199
     atom   30 type  2   force =    -0.01187889    0.00696992    0.00609199
     atom   31 type  1   force =     0.00125306    0.06699965    0.00823092
     atom   32 type  1   force =    -0.00125306    0.06699965    0.00823092
     atom   33 type  2   force =     0.00000000    0.01052456   -0.03063319
     atom   34 type  2   force =     0.00000000   -0.02818273   -0.01596505
     atom   35 type  1   force =    -0.01029255   -0.07191579    0.00003646
     atom   36 type  1   force =     0.01029255   -0.07191579    0.00003646
     atom   37 type  1   force =     0.00000000    0.13133111   -0.08075227
     atom   38 type  1   force =     0.00000000   -0.09196762   -0.08780089
     atom   39 type  1   force =     0.00000000   -0.04475969    0.03391029
     atom   40 type  1   force =     0.00000000   -0.00369986    0.02099887
     atom   41 type  3   force =     0.00000000    0.04394212   -0.04241870
     atom   42 type  3   force =     0.00000000    0.04394212    0.04241870
     atom   43 type  3   force =     0.00000000    0.08446015   -0.07556243
     atom   44 type  3   force =     0.00000000    0.08446015    0.07556243
     atom   45 type  3   force =     0.00000000   -0.10715113   -0.03217876
     atom   46 type  3   force =     0.00000000   -0.10715113    0.03217876
     The non-local contrib.  to forces
     atom    1 type  1   force =     0.00000000    0.04185308    1.06843450
     atom    2 type  1   force =     0.00000000    0.04275051    1.19894054
     atom    3 type  1   force =     0.00000000   -0.02236527   -1.16652288
     atom    4 type  1   force =     0.00000000    1.43163950   -0.26571187
     atom    5 type  2   force =    -0.03727135    0.00475588    0.03778333
     atom    6 type  2   force =     0.03727135    0.00475588    0.03778333
     atom    7 type  1   force =    -0.17155612   -0.03084348    0.00346826
     atom    8 type  1   force =     0.17155612   -0.03084348    0.00346826
     atom    9 type  2   force =     0.00000000    0.02882764    0.00137260
     atom   10 type  2   force =     0.00000000   -0.02856390   -0.03626930
     atom   11 type  1   force =     0.17959250    0.04928345   -0.15887914
     atom   12 type  1   force =    -0.17959250    0.04928345   -0.15887914
     atom   13 type  1   force =     0.00000000    0.04038025   -0.01909806
     atom   14 type  1   force =     0.00000000   -0.08486919   -0.11838043
     atom   15 type  1   force =     0.00000000    0.05807303    0.00015054
     atom   16 type  1   force =     0.00000000    0.00339785    0.18642727
     atom   17 type  2   force =     0.00000000   -0.00252801    0.00000000
     atom   18 type  2   force =     0.00000000    0.00233560    0.00000000
     atom   19 type  1   force =    -0.00312919    0.05829297    0.00000000
     atom   20 type  1   force =     0.00312919    0.05829297    0.00000000
     atom   21 type  2   force =    -0.00711516   -0.00180173    0.00000000
     atom   22 type  2   force =     0.00711516   -0.00180173    0.00000000
     atom   23 type  1   force =     0.04276308   -0.07105070    0.00000000
     atom   24 type  1   force =    -0.04276308   -0.07105070    0.00000000
     atom   25 type  1   force =     0.00000000    0.05807303   -0.00015054
     atom   26 type  1   force =     0.00000000    0.00339785   -0.18642727
     atom   27 type  1   force =     0.00000000    0.04038025    0.01909806
     atom   28 type  1   force =     0.00000000   -0.08486919    0.11838043
     atom   29 type  2   force =    -0.03727135    0.00475588   -0.03778333
     atom   30 type  2   force =     0.03727135    0.00475588   -0.03778333
     atom   31 type  1   force =    -0.17155612   -0.03084348   -0.00346826
     atom   32 type  1   force =     0.17155612   -0.03084348   -0.00346826
     atom   33 type  2   force =     0.00000000    0.02882764   -0.00137260
     atom   34 type  2   force =     0.00000000   -0.02856390    0.03626930
     atom   35 type  1   force =     0.17959250    0.04928345    0.15887914
     atom   36 type  1   force =    -0.17959250    0.04928345    0.15887914
     atom   37 type  1   force =     0.00000000   -0.02236527    1.16652288
     atom   38 type  1   force =     0.00000000    1.43163950    0.26571187
     atom   39 type  1   force =     0.00000000    0.04185308   -1.06843450
     atom   40 type  1   force =     0.00000000    0.04275051   -1.19894054
     atom   41 type  3   force =     0.00000000   -0.06694965    0.10532358
     atom   42 type  3   force =     0.00000000   -0.06694965   -0.10532358
     atom   43 type  3   force =     0.00000000   -0.09487063    0.09098420
     atom   44 type  3   force =     0.00000000   -0.09487063   -0.09098420
     atom   45 type  3   force =     0.00000000    0.08731969    0.03010766
     atom   46 type  3   force =     0.00000000    0.08731969   -0.03010766
     The ionic contribution  to forces
     atom    1 type  1   force =    -0.00000000   -0.76113673 -100.46138802
     atom    2 type  1   force =    -0.00000000   -0.74613940 -101.71754643
     atom    3 type  1   force =    -0.00000000    3.00097331  -89.79166297
     atom    4 type  1   force =    -0.00000000   -2.44064170  -92.23151906
     atom    5 type  2   force =    -1.71247421    1.74230419 -169.93980455
     atom    6 type  2   force =     1.71247421    1.74230419 -169.93980455
     atom    7 type  1   force =     0.65850060    0.91579451  -66.10051569
     atom    8 type  1   force =    -0.65850060    0.91579451  -66.10051569
     atom    9 type  2   force =     0.00000000   -2.33623820 -171.13233152
     atom   10 type  2   force =     0.00000000   -2.08116731 -174.80310906
     atom   11 type  1   force =    -1.08092930   -1.56717165  -61.20370591
     atom   12 type  1   force =     1.08092930   -1.56717165  -61.20370591
     atom   13 type  1   force =     0.00000000    0.04293119  -39.00716448
     atom   14 type  1   force =     0.00000000    0.98941733  -38.15365450
     atom   15 type  1   force =    -0.00000000   -0.04026161  -26.22735820
     atom   16 type  1   force =    -0.00000000   -0.57233501  -27.65642117
     atom   17 type  2   force =    -0.00000000   -0.30389068   -0.00045419
     atom   18 type  2   force =    -0.00000000   -0.30665238   -0.00046994
     atom   19 type  1   force =    -0.19711563   -0.73239820   -0.00008238
     atom   20 type  1   force =     0.19711563   -0.73239820   -0.00008238
     atom   21 type  2   force =    -0.31016516   -0.05080073   -0.00024321
     atom   22 type  2   force =     0.31016516   -0.05080073   -0.00024321
     atom   23 type  1   force =    -0.27937476    0.90445172   -0.00008419
     atom   24 type  1   force =     0.27937476    0.90445172   -0.00008419
     atom   25 type  1   force =    -0.00000000   -0.04025932   26.22715202
     atom   26 type  1   force =     0.00000000   -0.57233894   27.65624700
     atom   27 type  1   force =     0.00000000    0.04292379   39.00744958
     atom   28 type  1   force =     0.00000000    0.98943009   38.15395820
     atom   29 type  2   force =    -1.71243214    1.74228232  169.94010419
     atom   30 type  2   force =     1.71243214    1.74228232  169.94010419
     atom   31 type  1   force =     0.65850229    0.91577284   66.10058605
     atom   32 type  1   force =    -0.65850229    0.91577284   66.10058605
     atom   33 type  2   force =    -0.00000000   -2.33623291  171.13248825
     atom   34 type  2   force =     0.00000000   -2.08115589  174.80327074
     atom   35 type  1   force =    -1.08092663   -1.56714335   61.20378374
     atom   36 type  1   force =     1.08092663   -1.56714335   61.20378374
     atom   37 type  1   force =    -0.00000000    3.00091673   89.79161828
     atom   38 type  1   force =     0.00000000   -2.44093220   92.23150658
     atom   39 type  1   force =    -0.00000000   -0.76114807  100.46146212
     atom   40 type  1   force =    -0.00000000   -0.74613623  101.71761070
     atom   41 type  3   force =    -0.00000000    2.17003484  -18.08727536
     atom   42 type  3   force =    -0.00000000    2.17026854   18.08751841
     atom   43 type  3   force =    -0.00000000    2.32473683  -17.98215528
     atom   44 type  3   force =    -0.00000000    2.32501848   17.98226424
     atom   45 type  3   force =    -0.00000000   -1.54801415  -16.39405689
     atom   46 type  3   force =    -0.00000000   -1.54815371   16.39394484
     The local contribution  to forces
     atom    1 type  1   force =     0.00000000    0.64385271   99.29426888
     atom    2 type  1   force =     0.00000000    0.76863079  100.40169970
     atom    3 type  1   force =     0.00000000   -2.93734893   91.17924945
     atom    4 type  1   force =    -0.00000000    0.87492472   92.58947225
     atom    5 type  2   force =     1.80884721   -1.77136797  169.94359841
     atom    6 type  2   force =    -1.80884721   -1.77136797  169.94359841
     atom    7 type  1   force =    -0.47308442   -0.79037325   66.09044076
     atom    8 type  1   force =     0.47308442   -0.79037325   66.09044076
     atom    9 type  2   force =     0.00000000    2.34837926  171.12852978
     atom   10 type  2   force =     0.00000000    2.11488561  174.76402580
     atom   11 type  1   force =     0.90622672    1.43092745   61.34200892
     atom   12 type  1   force =    -0.90622672    1.43092745   61.34200892
     atom   13 type  1   force =     0.00000000   -0.08425515   39.04756491
     atom   14 type  1   force =    -0.00000000   -0.90763112   38.27081368
     atom   15 type  1   force =    -0.00000000   -0.01458148   26.22398413
     atom   16 type  1   force =    -0.00000000    0.57254571   27.47274141
     atom   17 type  2   force =    -0.00000000    0.29919574   -0.00582991
     atom   18 type  2   force =     0.00000000    0.30060711   -0.00580331
     atom   19 type  1   force =     0.19818735    0.59564494   -0.00246916
     atom   20 type  1   force =    -0.19818735    0.59564494   -0.00246916
     atom   21 type  2   force =     0.31838064    0.05094790   -0.00609788
     atom   22 type  2   force =    -0.31838064    0.05094790   -0.00609788
     atom   23 type  1   force =     0.23534311   -0.75278375   -0.00246476
     atom   24 type  1   force =    -0.23534311   -0.75278375   -0.00246476
     atom   25 type  1   force =    -0.00000000   -0.01459484  -26.22577791
     atom   26 type  1   force =    -0.00000000    0.57257102  -27.47453100
     atom   27 type  1   force =    -0.00000000   -0.08425998  -39.04936241
     atom   28 type  1   force =    -0.00000000   -0.90763203  -38.27257952
     atom   29 type  2   force =     1.80886760   -1.77136440 -169.94969774
     atom   30 type  2   force =    -1.80886760   -1.77136440 -169.94969774
     atom   31 type  1   force =    -0.47306595   -0.79032406  -66.09291352
     atom   32 type  1   force =     0.47306595   -0.79032406  -66.09291352
     atom   33 type  2   force =    -0.00000000    2.34851860 -171.13432123
     atom   34 type  2   force =     0.00000000    2.11482172 -174.76977831
     atom   35 type  1   force =     0.90622765    1.43089184  -61.34446945
     atom   36 type  1   force =    -0.90622765    1.43089184  -61.34446945
     atom   37 type  1   force =    -0.00000000   -2.93738945  -91.18301665
     atom   38 type  1   force =     0.00000000    0.87505962  -92.59324027
     atom   39 type  1   force =    -0.00000000    0.64397021  -99.29581472
     atom   40 type  1   force =    -0.00000000    0.76857345 -100.40310352
     atom   41 type  3   force =    -0.00000000   -2.08673047   18.00703079
     atom   42 type  3   force =    -0.00000000   -2.08673047  -18.00703079
     atom   43 type  3   force =     0.00000000   -2.14693527   17.82962198
     atom   44 type  3   force =     0.00000000   -2.14693527  -17.82962198
     atom   45 type  3   force =     0.00000000    1.32861965   16.34217854
     atom   46 type  3   force =     0.00000000    1.32861965  -16.34217854
     The core correction contribution to forces
     atom    1 type  1   force =    -0.00000000   -0.00003119   -0.00924876
     atom    2 type  1   force =    -0.00000000   -0.00024780   -0.00999200
     atom    3 type  1   force =    -0.00000000   -0.00183394    0.00934879
     atom    4 type  1   force =     0.00000000   -0.01345532    0.00101416
     atom    5 type  2   force =     0.00000000    0.00000000    0.00000000
     atom    6 type  2   force =     0.00000000    0.00000000    0.00000000
     atom    7 type  1   force =     0.00166975   -0.00110802    0.00011898
     atom    8 type  1   force =    -0.00166975   -0.00110802    0.00011898
     atom    9 type  2   force =     0.00000000    0.00000000    0.00000000
     atom   10 type  2   force =     0.00000000    0.00000000    0.00000000
     atom   11 type  1   force =    -0.00177020    0.00097944    0.00159844
     atom   12 type  1   force =     0.00177020    0.00097944    0.00159844
     atom   13 type  1   force =     0.00000000   -0.00046629    0.00038241
     atom   14 type  1   force =    -0.00000000    0.00086006    0.00174477
     atom   15 type  1   force =    -0.00000000   -0.00083327   -0.00025946
     atom   16 type  1   force =     0.00000000    0.00015962   -0.00236650
     atom   17 type  2   force =     0.00000000    0.00000000    0.00000000
     atom   18 type  2   force =     0.00000000    0.00000000    0.00000000
     atom   19 type  1   force =     0.00002684    0.00078203   -0.00000212
     atom   20 type  1   force =    -0.00002684    0.00078203   -0.00000212
     atom   21 type  2   force =     0.00000000    0.00000000    0.00000000
     atom   22 type  2   force =     0.00000000    0.00000000    0.00000000
     atom   23 type  1   force =    -0.00045725   -0.00071533   -0.00000216
     atom   24 type  1   force =     0.00045725   -0.00071533   -0.00000216
     atom   25 type  1   force =     0.00000000   -0.00083383    0.00025710
     atom   26 type  1   force =    -0.00000000    0.00015990    0.00236432
     atom   27 type  1   force =    -0.00000000   -0.00046632   -0.00038440
     atom   28 type  1   force =     0.00000000    0.00086025   -0.00174683
     atom   29 type  2   force =     0.00000000    0.00000000    0.00000000
     atom   30 type  2   force =     0.00000000    0.00000000    0.00000000
     atom   31 type  1   force =     0.00166977   -0.00110778   -0.00012093
     atom   32 type  1   force =    -0.00166977   -0.00110778   -0.00012093
     atom   33 type  2   force =     0.00000000    0.00000000    0.00000000
     atom   34 type  2   force =     0.00000000    0.00000000    0.00000000
     atom   35 type  1   force =    -0.00177018    0.00097933   -0.00160027
     atom   36 type  1   force =     0.00177018    0.00097933   -0.00160027
     atom   37 type  1   force =    -0.00000000   -0.00183477   -0.00935323
     atom   38 type  1   force =     0.00000000   -0.01345730   -0.00101857
     atom   39 type  1   force =     0.00000000   -0.00003088    0.00924607
     atom   40 type  1   force =    -0.00000000   -0.00024819    0.00999004
     atom   41 type  3   force =     0.00000000    0.00000000    0.00000000
     atom   42 type  3   force =     0.00000000    0.00000000    0.00000000
     atom   43 type  3   force =     0.00000000    0.00000000    0.00000000
     atom   44 type  3   force =     0.00000000    0.00000000    0.00000000
     atom   45 type  3   force =     0.00000000    0.00000000    0.00000000
     atom   46 type  3   force =     0.00000000    0.00000000    0.00000000
     The Hubbard contrib.    to forces
     atom    1 type  1   force =     0.00000000    0.00000000    0.00000000
     atom    2 type  1   force =     0.00000000    0.00000000    0.00000000
     atom    3 type  1   force =     0.00000000    0.00000000    0.00000000
     atom    4 type  1   force =     0.00000000    0.00000000    0.00000000
     atom    5 type  2   force =     0.00000000    0.00000000    0.00000000
     atom    6 type  2   force =     0.00000000    0.00000000    0.00000000
     atom    7 type  1   force =     0.00000000    0.00000000    0.00000000
     atom    8 type  1   force =     0.00000000    0.00000000    0.00000000
     atom    9 type  2   force =     0.00000000    0.00000000    0.00000000
     atom   10 type  2   force =     0.00000000    0.00000000    0.00000000
     atom   11 type  1   force =     0.00000000    0.00000000    0.00000000
     atom   12 type  1   force =     0.00000000    0.00000000    0.00000000
     atom   13 type  1   force =     0.00000000    0.00000000    0.00000000
     atom   14 type  1   force =     0.00000000    0.00000000    0.00000000
     atom   15 type  1   force =     0.00000000    0.00000000    0.00000000
     atom   16 type  1   force =     0.00000000    0.00000000    0.00000000
     atom   17 type  2   force =     0.00000000    0.00000000    0.00000000
     atom   18 type  2   force =     0.00000000    0.00000000    0.00000000
     atom   19 type  1   force =     0.00000000    0.00000000    0.00000000
     atom   20 type  1   force =     0.00000000    0.00000000    0.00000000
     atom   21 type  2   force =     0.00000000    0.00000000    0.00000000
     atom   22 type  2   force =     0.00000000    0.00000000    0.00000000
     atom   23 type  1   force =     0.00000000    0.00000000    0.00000000
     atom   24 type  1   force =     0.00000000    0.00000000    0.00000000
     atom   25 type  1   force =     0.00000000    0.00000000    0.00000000
     atom   26 type  1   force =     0.00000000    0.00000000    0.00000000
     atom   27 type  1   force =     0.00000000    0.00000000    0.00000000
     atom   28 type  1   force =     0.00000000    0.00000000    0.00000000
     atom   29 type  2   force =     0.00000000    0.00000000    0.00000000
     atom   30 type  2   force =     0.00000000    0.00000000    0.00000000
     atom   31 type  1   force =     0.00000000    0.00000000    0.00000000
     atom   32 type  1   force =     0.00000000    0.00000000    0.00000000
     atom   33 type  2   force =     0.00000000    0.00000000    0.00000000
     atom   34 type  2   force =     0.00000000    0.00000000    0.00000000
     atom   35 type  1   force =     0.00000000    0.00000000    0.00000000
     atom   36 type  1   force =     0.00000000    0.00000000    0.00000000
     atom   37 type  1   force =     0.00000000    0.00000000    0.00000000
     atom   38 type  1   force =     0.00000000    0.00000000    0.00000000
     atom   39 type  1   force =     0.00000000    0.00000000    0.00000000
     atom   40 type  1   force =     0.00000000    0.00000000    0.00000000
     atom   41 type  3   force =     0.00000000    0.00000000    0.00000000
     atom   42 type  3   force =     0.00000000    0.00000000    0.00000000
     atom   43 type  3   force =     0.00000000    0.00000000    0.00000000
     atom   44 type  3   force =     0.00000000    0.00000000    0.00000000
     atom   45 type  3   force =     0.00000000    0.00000000    0.00000000
     atom   46 type  3   force =     0.00000000    0.00000000    0.00000000
     The SCF correction term to forces
     atom    1 type  1   force =    -0.00000000   -0.00000393   -0.00000394
     atom    2 type  1   force =     0.00000000   -0.00000184   -0.00000014
     atom    3 type  1   force =    -0.00000000    0.00000743   -0.00001084
     atom    4 type  1   force =     0.00000000    0.00000101   -0.00000432
     atom    5 type  2   force =     0.00000820    0.00000402   -0.00000209
     atom    6 type  2   force =    -0.00000820    0.00000402   -0.00000209
     atom    7 type  1   force =     0.00000713   -0.00000047   -0.00000370
     atom    8 type  1   force =    -0.00000713   -0.00000047   -0.00000370
     atom    9 type  2   force =    -0.00000000   -0.00000719   -0.00000026
     atom   10 type  2   force =     0.00000000   -0.00000392   -0.00001280
     atom   11 type  1   force =     0.00000739   -0.00000097   -0.00000219
     atom   12 type  1   force =    -0.00000739   -0.00000097   -0.00000219
     atom   13 type  1   force =    -0.00000000    0.00000097    0.00001065
     atom   14 type  1   force =    -0.00000000    0.00000082   -0.00000194
     atom   15 type  1   force =     0.00000000   -0.00000030    0.00000280
     atom   16 type  1   force =    -0.00000000   -0.00000043   -0.00000876
     atom   17 type  2   force =    -0.00000000   -0.00000049    0.00000888
     atom   18 type  2   force =     0.00000000    0.00000089    0.00000892
     atom   19 type  1   force =    -0.00000860   -0.00000953    0.00000326
     atom   20 type  1   force =     0.00000860   -0.00000953    0.00000326
     atom   21 type  2   force =    -0.00000997   -0.00000016    0.00000868
     atom   22 type  2   force =     0.00000997   -0.00000016    0.00000868
     atom   23 type  1   force =    -0.00000837    0.00000934    0.00000325
     atom   24 type  1   force =     0.00000837    0.00000934    0.00000325
     atom   25 type  1   force =    -0.00000000   -0.00000032    0.00000239
     atom   26 type  1   force =     0.00000000   -0.00000041    0.00001388
     atom   27 type  1   force =    -0.00000000    0.00000101   -0.00000718
     atom   28 type  1   force =     0.00000000    0.00000080    0.00000550
     atom   29 type  2   force =     0.00000831    0.00000409    0.00000291
     atom   30 type  2   force =    -0.00000831    0.00000409    0.00000291
     atom   31 type  1   force =     0.00000711   -0.00000061    0.00000380
     atom   32 type  1   force =    -0.00000711   -0.00000061    0.00000380
     atom   33 type  2   force =    -0.00000000   -0.00000742    0.00000033
     atom   34 type  2   force =     0.00000000   -0.00000386    0.00001243
     atom   35 type  1   force =     0.00000746   -0.00000085    0.00000259
     atom   36 type  1   force =    -0.00000746   -0.00000085    0.00000259
     atom   37 type  1   force =    -0.00000000    0.00000754    0.00000890
     atom   38 type  1   force =     0.00000000    0.00000102    0.00000244
     atom   39 type  1   force =    -0.00000000   -0.00000399    0.00000185
     atom   40 type  1   force =     0.00000000   -0.00000185   -0.00000197
     atom   41 type  3   force =    -0.00000000    0.00000020   -0.00000060
     atom   42 type  3   force =    -0.00000000    0.00000023    0.00000028
     atom   43 type  3   force =     0.00000000    0.00000000    0.00000005
     atom   44 type  3   force =     0.00000000   -0.00000001   -0.00000037
     atom   45 type  3   force =    -0.00000000    0.00000132   -0.00000126
     atom   46 type  3   force =    -0.00000000    0.00000134    0.00000094

     Total force =     0.464655     Total SCF correction =     0.000058

     BFGS Geometry Optimization
     Energy error            =      0.0E+00 Ry
     Gradient error          =      1.3E-01 Ry/Bohr

     number of scf cycles    =   1
     number of bfgs steps    =   0

     energy             new  =   -3434.9323125509 Ry

     new trust radius        =       0.1541712970 bohr
     new conv_thr            =       0.0000000010 Ry


ATOMIC_POSITIONS (crystal)
O             0.0000000000        0.5758865238        0.2762215280
O             0.5000000000        0.4885529513        0.2730662450
O             0.0000000000       -0.0252133571        0.2958751975
O             0.5000000000        0.0008660556        0.3025371025
Ru            0.2541540683        0.0074822767        0.3598897618
Ru            0.7458459317        0.0074822767        0.3598897618
O             0.2385397759        0.3161219681        0.3546972004
O             0.7614602241        0.3161219681        0.3546972004
Ru            0.0000000000        0.5037775071        0.3552655432
Ru            0.5000000000        0.5115137545        0.3517059619
O             0.2615903738        0.6975056676        0.3607728820
O             0.7384096262        0.6975056676        0.3607728820
O             0.0000000000        0.0019432698        0.4119549857
O             0.5000000000        0.0174790505        0.4126959628
O             0.0000000000        0.5043869036        0.4448799618
O             0.5000000000        0.4978779087        0.4432978483
Ru            0.0000000000        0.0029345718        0.5000010000
Ru            0.5000000000        0.0044139236        0.5000010000
O             0.2471019911        0.1915772535        0.5000010000
O             0.7528980089        0.1915772535        0.5000010000
Ru            0.2532519475        0.5032700291        0.5000010000
Ru            0.7467480525        0.5032700291        0.5000010000
O             0.2518943833        0.8150721677        0.5000010000
O             0.7481056167        0.8150721677        0.5000010000
O             0.0000000000        0.5043869036        0.5551210382
O             0.5000000000        0.4978779087        0.5567031517
O             0.0000000000        0.0019432698        0.5880460143
O             0.5000000000        0.0174790505        0.5873050372
Ru            0.2541540683        0.0074822767        0.6401112382
Ru            0.7458459317        0.0074822767        0.6401112382
O             0.2385397759        0.3161219681        0.6453037996
O             0.7614602241        0.3161219681        0.6453037996
Ru            0.0000000000        0.5037775071        0.6447354568
Ru            0.5000000000        0.5115137545        0.6482950381
O             0.2615903738        0.6975056676        0.6392281180
O             0.7384096262        0.6975056676        0.6392281180
O             0.0000000000       -0.0252133571        0.7041268025
O             0.5000000000        0.0008660556        0.6974648975
O             0.0000000000        0.5758865238        0.7237794720
O             0.5000000000        0.4885529513        0.7269347550
H             0.0000000000        0.0529902472        0.2566314034
H             0.0000000000        0.0529902472        0.7433685966
H             0.5000000000        0.1303505801        0.2701712352
H             0.5000000000        0.1303505801        0.7298287648
H             0.0000000000        0.7979920823        0.2799055661
H             0.0000000000        0.7979920823        0.7200944339



     Writing config-only to output data dir /storage/home/mgm6007/ixd4/Maria/StrainJin_Files/RuO2-110-0-234/RuO2-110-0-234.save/
     NEW-OLD atomic charge density approx. for the potential

     Check: negative core charge=   -0.000001

     negative rho (up, down):  1.273E-04 0.000E+00

     add environment contribution to local potential
     Polarization accuracy = 2.5E-12, # of iterations =  42

     total cpu time spent up to now is    12404.1 secs

     per-process dynamical memory:   203.5 Mb

     Self-consistent Calculation

     iteration #  1     ecut=    50.00 Ry     beta= 0.70
     Davidson diagonalization with overlap
     ethr =  1.00E-06,  avg # of iterations = 15.0

     negative rho (up, down):  5.900E-04 0.000E+00

     total cpu time spent up to now is    12645.4 secs

     total energy              =   -3435.00083678 Ry
     estimated scf accuracy    <       0.11184646 Ry
     electrostatic embedding   =      -0.08606804 Ry
     cavitation energy         =       0.02089658 Ry
     PV energy                 =      -0.08018045 Ry
     correction to one-el term =     185.57901035 Ry

     iteration #  2     ecut=    50.00 Ry     beta= 0.70
     Davidson diagonalization with overlap
     ethr =  3.06E-05,  avg # of iterations =  2.0

     negative rho (up, down):  5.616E-04 0.000E+00

     total cpu time spent up to now is    12924.8 secs

     total energy              =   -3435.00275481 Ry
     estimated scf accuracy    <       0.16022098 Ry
     electrostatic embedding   =      -0.08623885 Ry
     cavitation energy         =       0.02094550 Ry
     PV energy                 =      -0.08003879 Ry
     correction to one-el term =     185.58158879 Ry

     iteration #  3     ecut=    50.00 Ry     beta= 0.70
     Davidson diagonalization with overlap
     ethr =  3.06E-05,  avg # of iterations =  1.0

     negative rho (up, down):  9.260E-04 0.000E+00

     add environment contribution to local potential
     Polarization accuracy = 5.0E-12, # of iterations =  43

     total cpu time spent up to now is    13227.0 secs

     total energy              =   -3435.00748115 Ry
     estimated scf accuracy    <       0.00906675 Ry
     electrostatic embedding   =      -0.08619999 Ry
     cavitation energy         =       0.02092889 Ry
     PV energy                 =      -0.08006154 Ry
     correction to one-el term =     185.58166255 Ry

     iteration #  4     ecut=    50.00 Ry     beta= 0.70
     Davidson diagonalization with overlap
     ethr =  2.48E-06,  avg # of iterations =  2.0

     negative rho (up, down):  1.017E-03 0.000E+00

     add environment contribution to local potential
     Polarization accuracy = 5.7E-12, # of iterations =  43

     total cpu time spent up to now is    13492.3 secs

     total energy              =   -3435.01088238 Ry
     estimated scf accuracy    <       0.00267408 Ry
     electrostatic embedding   =      -0.08974791 Ry
     cavitation energy         =       0.02092236 Ry
     PV energy                 =      -0.08005056 Ry
     correction to one-el term =     185.96847615 Ry

     iteration #  5     ecut=    50.00 Ry     beta= 0.70
     Davidson diagonalization with overlap
     ethr =  7.31E-07,  avg # of iterations =  2.0

     negative rho (up, down):  9.707E-04 0.000E+00

     add environment contribution to local potential
     Polarization accuracy = 5.6E-12, # of iterations =  43

     total cpu time spent up to now is    13802.5 secs

     total energy              =   -3435.01114859 Ry
     estimated scf accuracy    <       0.00183531 Ry
     electrostatic embedding   =      -0.09033603 Ry
     cavitation energy         =       0.02090094 Ry
     PV energy                 =      -0.08005695 Ry
     correction to one-el term =     186.03444961 Ry

     iteration #  6     ecut=    50.00 Ry     beta= 0.70
     Davidson diagonalization with overlap
     ethr =  5.01E-07,  avg # of iterations =  1.0

     negative rho (up, down):  7.740E-04 0.000E+00

     add environment contribution to local potential
     Polarization accuracy = 4.5E-12, # of iterations =  43

     total cpu time spent up to now is    14073.1 secs

     total energy              =   -3435.01124397 Ry
     estimated scf accuracy    <       0.00019608 Ry
     electrostatic embedding   =      -0.09072208 Ry
     cavitation energy         =       0.02088367 Ry
     PV energy                 =      -0.08006701 Ry
     correction to one-el term =     186.03828723 Ry

     iteration #  7     ecut=    50.00 Ry     beta= 0.70
     Davidson diagonalization with overlap
     ethr =  5.36E-08,  avg # of iterations =  2.0

     negative rho (up, down):  5.571E-04 0.000E+00

     add environment contribution to local potential
     Polarization accuracy = 3.9E-12, # of iterations =  44

     total cpu time spent up to now is    14305.8 secs

     total energy              =   -3435.01127491 Ry
     estimated scf accuracy    <       0.00015163 Ry
     electrostatic embedding   =      -0.09123916 Ry
     cavitation energy         =       0.02086218 Ry
     PV energy                 =      -0.08008111 Ry
     correction to one-el term =     185.98873642 Ry

     iteration #  8     ecut=    50.00 Ry     beta= 0.70
     Davidson diagonalization with overlap
     ethr =  4.14E-08,  avg # of iterations =  2.0

     negative rho (up, down):  3.459E-04 0.000E+00

     add environment contribution to local potential
     Polarization accuracy = 3.5E-12, # of iterations =  43

     total cpu time spent up to now is    14611.2 secs

     total energy              =   -3435.01129954 Ry
     estimated scf accuracy    <       0.00004056 Ry
     electrostatic embedding   =      -0.09181502 Ry
     cavitation energy         =       0.02084527 Ry
     PV energy                 =      -0.08008926 Ry
     correction to one-el term =     185.93017159 Ry

     iteration #  9     ecut=    50.00 Ry     beta= 0.70
     Davidson diagonalization with overlap
     ethr =  1.11E-08,  avg # of iterations =  2.0

     negative rho (up, down):  2.318E-04 0.000E+00

     add environment contribution to local potential
     Polarization accuracy = 3.3E-12, # of iterations =  44

     total cpu time spent up to now is    14943.6 secs

     total energy              =   -3435.01130962 Ry
     estimated scf accuracy    <       0.00000508 Ry
     electrostatic embedding   =      -0.09233382 Ry
     cavitation energy         =       0.02083472 Ry
     PV energy                 =      -0.08009233 Ry
     correction to one-el term =     185.86041831 Ry

     iteration # 10     ecut=    50.00 Ry     beta= 0.70
     Davidson diagonalization with overlap
     ethr =  1.39E-09,  avg # of iterations =  3.0

     negative rho (up, down):  1.839E-04 0.000E+00

     add environment contribution to local potential
     Polarization accuracy = 3.3E-12, # of iterations =  43

     total cpu time spent up to now is    15254.6 secs

     total energy              =   -3435.01131056 Ry
     estimated scf accuracy    <       0.00000351 Ry
     electrostatic embedding   =      -0.09257617 Ry
     cavitation energy         =       0.02083505 Ry
     PV energy                 =      -0.08008858 Ry
     correction to one-el term =     185.81581739 Ry

     iteration # 11     ecut=    50.00 Ry     beta= 0.70
     Davidson diagonalization with overlap
     ethr =  9.59E-10,  avg # of iterations =  2.0

     negative rho (up, down):  1.239E-04 0.000E+00

     add environment contribution to local potential
     Polarization accuracy = 3.5E-12, # of iterations =  43

     total cpu time spent up to now is    15510.8 secs

     total energy              =   -3435.01131087 Ry
     estimated scf accuracy    <       0.00000138 Ry
     electrostatic embedding   =      -0.09271103 Ry
     cavitation energy         =       0.02083443 Ry
     PV energy                 =      -0.08008735 Ry
     correction to one-el term =     185.79351617 Ry

     iteration # 12     ecut=    50.00 Ry     beta= 0.70
     Davidson diagonalization with overlap
     ethr =  3.77E-10,  avg # of iterations =  3.0

     negative rho (up, down):  1.104E-04 0.000E+00

     add environment contribution to local potential
     Polarization accuracy = 3.6E-12, # of iterations =  43

     total cpu time spent up to now is    15803.5 secs

     total energy              =   -3435.01131078 Ry
     estimated scf accuracy    <       0.00000064 Ry
     electrostatic embedding   =      -0.09287472 Ry
     cavitation energy         =       0.02083660 Ry
     PV energy                 =      -0.08008294 Ry
     correction to one-el term =     185.75988392 Ry

     iteration # 13     ecut=    50.00 Ry     beta= 0.70
     Davidson diagonalization with overlap
     ethr =  1.75E-10,  avg # of iterations =  2.0

     negative rho (up, down):  1.062E-04 0.000E+00

     add environment contribution to local potential
     Polarization accuracy = 3.6E-12, # of iterations =  43

     total cpu time spent up to now is    16017.3 secs

     total energy              =   -3435.01131080 Ry
     estimated scf accuracy    <       0.00000023 Ry
     electrostatic embedding   =      -0.09293352 Ry
     cavitation energy         =       0.02083733 Ry
     PV energy                 =      -0.08008142 Ry
     correction to one-el term =     185.74917090 Ry

     iteration # 14     ecut=    50.00 Ry     beta= 0.70
     Davidson diagonalization with overlap
     ethr =  6.33E-11,  avg # of iterations =  2.0

     negative rho (up, down):  1.069E-04 0.000E+00

     add environment contribution to local potential
     Polarization accuracy = 3.7E-12, # of iterations =  43

     total cpu time spent up to now is    16317.4 secs

     total energy              =   -3435.01131081 Ry
     estimated scf accuracy    <       0.00000016 Ry
     electrostatic embedding   =      -0.09297792 Ry
     cavitation energy         =       0.02083796 Ry
     PV energy                 =      -0.08008011 Ry
     correction to one-el term =     185.74256899 Ry

     iteration # 15     ecut=    50.00 Ry     beta= 0.70
     Davidson diagonalization with overlap
     ethr =  4.44E-11,  avg # of iterations =  2.0

     negative rho (up, down):  1.152E-04 0.000E+00

     add environment contribution to local potential
     Polarization accuracy = 3.7E-12, # of iterations =  43

     total cpu time spent up to now is    16597.7 secs

     total energy              =   -3435.01131074 Ry
     estimated scf accuracy    <       0.00000005 Ry
     electrostatic embedding   =      -0.09303208 Ry
     cavitation energy         =       0.02083829 Ry
     PV energy                 =      -0.08007895 Ry
     correction to one-el term =     185.73595801 Ry

     iteration # 16     ecut=    50.00 Ry     beta= 0.70
     Davidson diagonalization with overlap
     ethr =  1.42E-11,  avg # of iterations =  3.0

     negative rho (up, down):  1.268E-04 0.000E+00

     add environment contribution to local potential
     Polarization accuracy = 3.5E-12, # of iterations =  44

     total cpu time spent up to now is    16884.9 secs

     total energy              =   -3435.01131070 Ry
     estimated scf accuracy    <       0.00000001 Ry
     electrostatic embedding   =      -0.09306452 Ry
     cavitation energy         =       0.02083832 Ry
     PV energy                 =      -0.08007838 Ry
     correction to one-el term =     185.73366975 Ry

     iteration # 17     ecut=    50.00 Ry     beta= 0.70
     Davidson diagonalization with overlap
     ethr =  3.76E-12,  avg # of iterations =  3.0

     negative rho (up, down):  1.327E-04 0.000E+00

     add environment contribution to local potential
     Polarization accuracy = 3.7E-12, # of iterations =  43

     total cpu time spent up to now is    17110.4 secs

     total energy              =   -3435.01131069 Ry
     estimated scf accuracy    <          7.3E-09 Ry
[...]
     atom   29 type  2   force =     0.00000000    0.00000000    0.00000000
     atom   30 type  2   force =     0.00000000    0.00000000    0.00000000
     atom   31 type  1   force =     0.00000000    0.00000000    0.00000000
     atom   32 type  1   force =     0.00000000    0.00000000    0.00000000
     atom   33 type  2   force =     0.00000000    0.00000000    0.00000000
     atom   34 type  2   force =     0.00000000    0.00000000    0.00000000
     atom   35 type  1   force =     0.00000000    0.00000000    0.00000000
     atom   36 type  1   force =     0.00000000    0.00000000    0.00000000
     atom   37 type  1   force =     0.00000000    0.00000000    0.00000000
     atom   38 type  1   force =     0.00000000    0.00000000    0.00000000
     atom   39 type  1   force =     0.00000000    0.00000000    0.00000000
     atom   40 type  1   force =     0.00000000    0.00000000    0.00000000
     atom   41 type  3   force =     0.00000000    0.00000000    0.00000000
     atom   42 type  3   force =     0.00000000    0.00000000    0.00000000
     atom   43 type  3   force =     0.00000000    0.00000000    0.00000000
     atom   44 type  3   force =     0.00000000    0.00000000    0.00000000
     atom   45 type  3   force =     0.00000000    0.00000000    0.00000000
     atom   46 type  3   force =     0.00000000    0.00000000    0.00000000
     The SCF correction term to forces
     atom    1 type  1   force =     0.00000000   -0.00000176   -0.00000007
     atom    2 type  1   force =    -0.00000000    0.00000041    0.00000103
     atom    3 type  1   force =     0.00000000    0.00000132   -0.00000024
     atom    4 type  1   force =     0.00000000   -0.00000156    0.00000032
     atom    5 type  2   force =    -0.00000041   -0.00000043   -0.00000113
     atom    6 type  2   force =     0.00000041   -0.00000043   -0.00000113
     atom    7 type  1   force =     0.00000055   -0.00000003   -0.00000044
     atom    8 type  1   force =    -0.00000055   -0.00000003   -0.00000044
     atom    9 type  2   force =     0.00000000   -0.00000077   -0.00000032
     atom   10 type  2   force =     0.00000000    0.00000084   -0.00000032
     atom   11 type  1   force =     0.00000110    0.00000030   -0.00000004
     atom   12 type  1   force =    -0.00000110    0.00000030   -0.00000004
     atom   13 type  1   force =     0.00000000   -0.00000006   -0.00000041
     atom   14 type  1   force =     0.00000000   -0.00000030   -0.00000114
     atom   15 type  1   force =    -0.00000000    0.00000017    0.00000084
     atom   16 type  1   force =    -0.00000000    0.00000020   -0.00000014
     atom   17 type  2   force =     0.00000000    0.00000012    0.00000002
     atom   18 type  2   force =     0.00000000   -0.00000083    0.00000002
     atom   19 type  1   force =    -0.00000077    0.00000087    0.00000001
     atom   20 type  1   force =     0.00000077    0.00000087    0.00000001
     atom   21 type  2   force =     0.00000019    0.00000060    0.00000003
     atom   22 type  2   force =    -0.00000019    0.00000060    0.00000003
     atom   23 type  1   force =    -0.00000045   -0.00000109    0.00000001
     atom   24 type  1   force =     0.00000045   -0.00000109    0.00000001
     atom   25 type  1   force =     0.00000000    0.00000017   -0.00000082
     atom   26 type  1   force =    -0.00000000    0.00000020    0.00000016
     atom   27 type  1   force =     0.00000000   -0.00000006    0.00000042
     atom   28 type  1   force =    -0.00000000   -0.00000031    0.00000114
     atom   29 type  2   force =    -0.00000041   -0.00000043    0.00000113
     atom   30 type  2   force =     0.00000041   -0.00000043    0.00000113
     atom   31 type  1   force =     0.00000055   -0.00000003    0.00000044
     atom   32 type  1   force =    -0.00000055   -0.00000003    0.00000044
     atom   33 type  2   force =     0.00000000   -0.00000077    0.00000032
     atom   34 type  2   force =     0.00000000    0.00000084    0.00000032
     atom   35 type  1   force =     0.00000110    0.00000029    0.00000004
     atom   36 type  1   force =    -0.00000110    0.00000029    0.00000004
     atom   37 type  1   force =     0.00000000    0.00000132    0.00000023
     atom   38 type  1   force =     0.00000000   -0.00000156   -0.00000032
     atom   39 type  1   force =     0.00000000   -0.00000175    0.00000006
     atom   40 type  1   force =    -0.00000000    0.00000041   -0.00000104
     atom   41 type  3   force =     0.00000000   -0.00000002    0.00000007
     atom   42 type  3   force =     0.00000000   -0.00000002   -0.00000007
     atom   43 type  3   force =     0.00000000   -0.00000007    0.00000004
     atom   44 type  3   force =     0.00000000   -0.00000007   -0.00000004
     atom   45 type  3   force =     0.00000000   -0.00000001   -0.00000003
     atom   46 type  3   force =    -0.00000000   -0.00000001    0.00000003

     Total force =     0.001669     Total SCF correction =     0.000007
     Energy error            =      5.5E-06 Ry
     Gradient error          =      3.3E-04 Ry/Bohr

     number of scf cycles    =  70
     number of bfgs steps    =  69

     energy             old  =   -3435.1290144138 Ry
     energy             new  =   -3435.1290199443 Ry

     CASE: energy            _new < energy            _old

     new trust radius        =       0.0126023462 bohr
     new conv_thr            =            1.0E-11 Ry


ATOMIC_POSITIONS (crystal)
O             0.0000000000        0.4633267376        0.2687584931
O             0.5000000000        0.5101828578        0.2726258365
O             0.0000000000        0.0219992864        0.3005589114
O             0.5000000000        0.0179455841        0.3048090394
Ru            0.2500170711        0.0150566102        0.3588937543
Ru            0.7499829289        0.0150566102        0.3588937543
O             0.2498828805        0.3270985060        0.3613881160
O             0.7501171195        0.3270985060        0.3613881160
Ru            0.0000000000        0.5136436353        0.3571849150
Ru            0.5000000000        0.5142446809        0.3506438270
O             0.2425451194        0.7039485539        0.3547765886
O             0.7574548806        0.7039485539        0.3547765886
O             0.0000000000        0.0155850248        0.4110513397
O             0.5000000000        0.0122999639        0.4119574620
O             0.0000000000        0.5282031060        0.4468564846
O             0.5000000000        0.5283939340        0.4431702224
Ru            0.0000000000        0.0279819262        0.5000010000
Ru            0.5000000000        0.0282818243        0.5000010000
O             0.2504275249        0.2145282643        0.5000010000
O             0.7495724751        0.2145282643        0.5000010000
Ru            0.2512513126        0.5290260394        0.5000010000
Ru            0.7487486874        0.5290260394        0.5000010000
O             0.2500411806        0.8426288982        0.5000010000
O             0.7499588194        0.8426288982        0.5000010000
O             0.0000000000        0.5282031060        0.5531445154
O             0.5000000000        0.5283939340        0.5568307776
O             0.0000000000        0.0155850248        0.5889496603
O             0.5000000000        0.0122999639        0.5880435380
Ru            0.2500170711        0.0150566102        0.6411072457
Ru            0.7499829289        0.0150566102        0.6411072457
O             0.2498828805        0.3270985060        0.6386128840
O             0.7501171195        0.3270985060        0.6386128840
Ru            0.0000000000        0.5136436353        0.6428160850
Ru            0.5000000000        0.5142446809        0.6493571730
O             0.2425451194        0.7039485539        0.6452244114
O             0.7574548806        0.7039485539        0.6452244114
O             0.0000000000        0.0219992864        0.6994430886
O             0.5000000000        0.0179455841        0.6951929606
O             0.0000000000        0.4633267376        0.7312425069
O             0.5000000000        0.5101828578        0.7273751635
H             0.0000000000        0.1612384564        0.2758924062
H             0.0000000000        0.1612384564        0.7241075938
H             0.5000000000        0.0183649625        0.2607545258
H             0.5000000000        0.0183649625        0.7392454742
H             0.0000000000        0.6022663529        0.2454728630
H             0.0000000000        0.6022663529        0.7545271370



     Writing config-only to output data dir /storage/home/mgm6007/ixd4/Maria/StrainJin_Files/RuO2-110-0-234/RuO2-110-0-234.save/
     NEW-OLD atomic charge density approx. for the potential

     Check: negative core charge=   -0.000001

     negative rho (up, down):  1.411E-04 0.000E+00

     add environment contribution to local potential
     Polarization accuracy = 5.6E-12, # of iterations =  42

     total cpu time spent up to now is   205239.2 secs

     per-process dynamical memory:   227.5 Mb

     Self-consistent Calculation

     iteration #  1     ecut=    50.00 Ry     beta= 0.70
     Davidson diagonalization with overlap
     ethr =  1.00E-06,  avg # of iterations =  2.0

     Threshold (ethr) on eigenvalues was too large:
     Diagonalizing with lowered threshold

     Davidson diagonalization with overlap
     ethr =  2.13E-09,  avg # of iterations =  4.0

     negative rho (up, down):  1.512E-04 0.000E+00

     add environment contribution to local potential
     Polarization accuracy = 5.3E-12, # of iterations =  42

     total cpu time spent up to now is   205384.2 secs

     total energy              =   -3435.12901371 Ry
     estimated scf accuracy    <       0.00000874 Ry
     electrostatic embedding   =      -0.05473032 Ry
     cavitation energy         =       0.02098417 Ry
     PV energy                 =      -0.08080141 Ry
     correction to one-el term =     187.76963752 Ry

     iteration #  2     ecut=    50.00 Ry     beta= 0.70
     Davidson diagonalization with overlap
     ethr =  2.39E-09,  avg # of iterations =  2.0

     negative rho (up, down):  1.581E-04 0.000E+00

     add environment contribution to local potential
     Polarization accuracy = 4.9E-12, # of iterations =  42

     total cpu time spent up to now is   205509.6 secs

     total energy              =   -3435.12902071 Ry
     estimated scf accuracy    <       0.00000306 Ry
     electrostatic embedding   =      -0.05470481 Ry
     cavitation energy         =       0.02098457 Ry
     PV energy                 =      -0.08080305 Ry
     correction to one-el term =     187.77374005 Ry

     iteration #  3     ecut=    50.00 Ry     beta= 0.70
     Davidson diagonalization with overlap
     ethr =  8.37E-10,  avg # of iterations =  2.0

     negative rho (up, down):  1.618E-04 0.000E+00

     add environment contribution to local potential
     Polarization accuracy = 3.4E-12, # of iterations =  41

     total cpu time spent up to now is   205641.2 secs

     total energy              =   -3435.12902346 Ry
     estimated scf accuracy    <       0.00000400 Ry
     electrostatic embedding   =      -0.05469552 Ry
     cavitation energy         =       0.02098513 Ry
     PV energy                 =      -0.08080375 Ry
     correction to one-el term =     187.77600535 Ry

     iteration #  4     ecut=    50.00 Ry     beta= 0.70
     Davidson diagonalization with overlap
     ethr =  8.37E-10,  avg # of iterations =  2.0

     negative rho (up, down):  1.625E-04 0.000E+00

     add environment contribution to local potential
     Polarization accuracy = 4.3E-12, # of iterations =  42

     total cpu time spent up to now is   205780.2 secs

     total energy              =   -3435.12902479 Ry
     estimated scf accuracy    <       0.00000049 Ry
     electrostatic embedding   =      -0.05468934 Ry
     cavitation energy         =       0.02098546 Ry
     PV energy                 =      -0.08080439 Ry
     correction to one-el term =     187.77625267 Ry

     iteration #  5     ecut=    50.00 Ry     beta= 0.70
     Davidson diagonalization with overlap
     ethr =  1.35E-10,  avg # of iterations =  2.0

     negative rho (up, down):  1.616E-04 0.000E+00

     add environment contribution to local potential
     Polarization accuracy = 7.4E-12, # of iterations =  42

     total cpu time spent up to now is   205916.9 secs

     total energy              =   -3435.12902513 Ry
     estimated scf accuracy    <       0.00000036 Ry
     electrostatic embedding   =      -0.05468910 Ry
     cavitation energy         =       0.02098571 Ry
     PV energy                 =      -0.08080458 Ry
     correction to one-el term =     187.77635542 Ry

     iteration #  6     ecut=    50.00 Ry     beta= 0.70
     Davidson diagonalization with overlap
     ethr =  9.72E-11,  avg # of iterations =  2.0

     negative rho (up, down):  1.597E-04 0.000E+00

     add environment contribution to local potential
     Polarization accuracy = 7.1E-12, # of iterations =  42

     total cpu time spent up to now is   206055.3 secs

     total energy              =   -3435.12902543 Ry
     estimated scf accuracy    <       0.00000016 Ry
     electrostatic embedding   =      -0.05468842 Ry
     cavitation energy         =       0.02098604 Ry
     PV energy                 =      -0.08080491 Ry
     correction to one-el term =     187.77580445 Ry

     iteration #  7     ecut=    50.00 Ry     beta= 0.70
     Davidson diagonalization with overlap
     ethr =  4.32E-11,  avg # of iterations =  2.0

     negative rho (up, down):  1.580E-04 0.000E+00

     add environment contribution to local potential
     Polarization accuracy = 4.0E-12, # of iterations =  42

     total cpu time spent up to now is   206197.4 secs

     total energy              =   -3435.12902542 Ry
     estimated scf accuracy    <       0.00000006 Ry
     electrostatic embedding   =      -0.05468882 Ry
     cavitation energy         =       0.02098622 Ry
     PV energy                 =      -0.08080505 Ry
     correction to one-el term =     187.77560827 Ry

     iteration #  8     ecut=    50.00 Ry     beta= 0.70
     Davidson diagonalization with overlap
     ethr =  1.59E-11,  avg # of iterations =  2.0

     negative rho (up, down):  1.544E-04 0.000E+00

     add environment contribution to local potential
     Polarization accuracy = 3.9E-12, # of iterations =  42

     total cpu time spent up to now is   206334.0 secs

     total energy              =   -3435.12902541 Ry
     estimated scf accuracy    <       0.00000001 Ry
     electrostatic embedding   =      -0.05468910 Ry
     cavitation energy         =       0.02098626 Ry
     PV energy                 =      -0.08080511 Ry
     correction to one-el term =     187.77552035 Ry

     iteration #  9     ecut=    50.00 Ry     beta= 0.70
     Davidson diagonalization with overlap
     ethr =  2.99E-12,  avg # of iterations =  2.0

     negative rho (up, down):  1.505E-04 0.000E+00

     add environment contribution to local potential
     Polarization accuracy = 4.2E-12, # of iterations =  42

     total cpu time spent up to now is   206467.0 secs

     total energy              =   -3435.12902542 Ry
     estimated scf accuracy    <       0.00000002 Ry
     electrostatic embedding   =      -0.05468926 Ry
     cavitation energy         =       0.02098627 Ry
     PV energy                 =      -0.08080523 Ry
     correction to one-el term =     187.77524257 Ry

     iteration # 10     ecut=    50.00 Ry     beta= 0.70
     Davidson diagonalization with overlap
     ethr =  2.99E-12,  avg # of iterations =  2.0

     negative rho (up, down):  1.480E-04 0.000E+00

     add environment contribution to local potential
     Polarization accuracy = 5.1E-12, # of iterations =  42

     total cpu time spent up to now is   206590.9 secs

     total energy              =   -3435.12902544 Ry
     estimated scf accuracy    <          6.0E-09 Ry
     electrostatic embedding   =      -0.05468966 Ry
     cavitation energy         =       0.02098627 Ry
     PV energy                 =      -0.08080533 Ry
     correction to one-el term =     187.77501975 Ry

     iteration # 11     ecut=    50.00 Ry     beta= 0.70
     Davidson diagonalization with overlap
     ethr =  1.63E-12,  avg # of iterations =  2.0

     negative rho (up, down):  1.444E-04 0.000E+00

     add environment contribution to local potential
     Polarization accuracy = 4.5E-12, # of iterations =  42

     total cpu time spent up to now is   206740.7 secs

     total energy              =   -3435.12902545 Ry
     estimated scf accuracy    <          4.9E-09 Ry
     electrostatic embedding   =      -0.05468980 Ry
     cavitation energy         =       0.02098626 Ry
     PV energy                 =      -0.08080541 Ry
     correction to one-el term =     187.77485546 Ry

     iteration # 12     ecut=    50.00 Ry     beta= 0.70
     Davidson diagonalization with overlap
     ethr =  1.33E-12,  avg # of iterations =  2.0

     negative rho (up, down):  1.429E-04 0.000E+00

     add environment contribution to local potential
     Polarization accuracy = 4.4E-12, # of iterations =  42

     total cpu time spent up to now is   206881.5 secs

     total energy              =   -3435.12902546 Ry
     estimated scf accuracy    <          8.6E-10 Ry
     electrostatic embedding   =      -0.05468991 Ry
     cavitation energy         =       0.02098626 Ry
     PV energy                 =      -0.08080552 Ry
     correction to one-el term =     187.77461086 Ry

     iteration # 13     ecut=    50.00 Ry     beta= 0.70
     Davidson diagonalization with overlap
     ethr =  2.35E-13,  avg # of iterations =  2.0

     negative rho (up, down):  1.418E-04 0.000E+00

     add environment contribution to local potential
     Polarization accuracy = 6.4E-12, # of iterations =  42

     total cpu time spent up to now is   207018.7 secs

     total energy              =   -3435.12902546 Ry
     estimated scf accuracy    <          4.5E-10 Ry
     electrostatic embedding   =      -0.05468978 Ry
     cavitation energy         =       0.02098626 Ry
     PV energy                 =      -0.08080557 Ry
     correction to one-el term =     187.77449512 Ry

     iteration # 14     ecut=    50.00 Ry     beta= 0.70
     Davidson diagonalization with overlap
     ethr =  1.23E-13,  avg # of iterations =  2.0

     negative rho (up, down):  1.415E-04 0.000E+00

     add environment contribution to local potential
     Polarization accuracy = 6.5E-12, # of iterations =  42

     total cpu time spent up to now is   207168.9 secs

     total energy              =   -3435.12902546 Ry
     estimated scf accuracy    <          6.0E-11 Ry
     electrostatic embedding   =      -0.05468963 Ry
     cavitation energy         =       0.02098627 Ry
     PV energy                 =      -0.08080561 Ry
     correction to one-el term =     187.77441460 Ry

     iteration # 15     ecut=    50.00 Ry     beta= 0.70
     Davidson diagonalization with overlap
     ethr =  1.00E-13,  avg # of iterations =  2.0

     negative rho (up, down):  1.410E-04 0.000E+00

     add environment contribution to local potential
     Polarization accuracy = 5.0E-12, # of iterations =  42

     total cpu time spent up to now is   207306.0 secs

     total energy              =   -3435.12902546 Ry
     estimated scf accuracy    <          5.2E-11 Ry
     electrostatic embedding   =      -0.05468950 Ry
     cavitation energy         =       0.02098627 Ry
     PV energy                 =      -0.08080562 Ry
     correction to one-el term =     187.77438769 Ry

     iteration # 16     ecut=    50.00 Ry     beta= 0.70
     Davidson diagonalization with overlap
     ethr =  1.00E-13,  avg # of iterations =  1.0

     negative rho (up, down):  1.410E-04 0.000E+00

     add environment contribution to local potential
     Polarization accuracy = 7.9E-12, # of iterations =  41
