
     Program PWSCF v.7.2 starts on 19Jul2023 at 11:38:17 
        Git branch: heads/qe-7.2
        Last git commit: b4c5e8deeb7d1863e7553a87b45f8d22c21926a5
        Last git commit date: Mon Mar 27 16:12:09 2023 +0000
        Last git commit subject: Merge branch 'merge_fix_hubbard' into 'develop'

     This program is part of the open-source Quantum ESPRESSO suite
     for quantum simulation of materials; please cite
         "P. Giannozzi et al., J. Phys.:Condens. Matter 21 395502 (2009);
         "P. Giannozzi et al., J. Phys.:Condens. Matter 29 465901 (2017);
         "P. Giannozzi et al., J. Chem. Phys. 152 154105 (2020);
          URL http://www.quantum-espresso.org", 
     in publications or presentations arising from this work. More details at
     http://www.quantum-espresso.org/quote

     Parallel version (MPI), running on    20 processors

     MPI processes distributed on     1 nodes
     103831 MiB available memory on the printing compute node when the environment starts
 
     Reading input from RuO2-110-0-012.in

     Current dimensions of program PWSCF are:
     Max number of different atomic species (ntypx) = 10
     Max number of k-points (npk) =  40000
     Max angular momentum in pseudopotentials (lmaxx) =  4
 
     Reading input from environ.in:
     * Environ restarting
     * setting up water environment
     * using electronic solvent mode
     * setting boundary derivatives method to SCCS default
     
     file O.pbe-n-kjpaw_psl.0.1.UPF: wavefunction(s)  2P renormalized
     Message from routine setup:
     using ibrav=0 with symmetry is DISCOURAGED, use correct ibrav instead
 
     R & G space division:  proc/nbgrp/npool/nimage =      20
     Subspace diagonalization in iterative solution of the eigenvalue problem:
     one sub-group per band group will be used
     scalapack distributed-memory algorithm (size of sub-group:  2*  2 procs)

 
     Parallelization info
     --------------------
     sticks:   dense  smooth     PW     G-vecs:    dense   smooth      PW
     Min         282     113     29                56190    14217    1913
     Max         283     114     30                56201    14227    1932
     Sum        5657    2263    593              1123933   284439   38425
 
     Using Slab Decomposition
 


     bravais-lattice index     =            0
     lattice parameter (alat)  =      12.1041  a.u.
     unit-cell volume          =    5954.5483 (a.u.)^3
     number of atoms/cell      =           46
     number of atomic types    =            3
     number of electrons       =       366.00
     number of Kohn-Sham states=          220
     kinetic-energy cutoff     =      50.0000  Ry
     charge density cutoff     =     500.0000  Ry
     scf convergence threshold =      1.0E-09
     mixing beta               =       0.7000
     number of iterations used =            8  local-TF  mixing
     energy convergence thresh.=      1.0E-04
     force convergence thresh. =      1.0E-04
     Exchange-correlation= PBE
                           (   1   4   3   4   0   0   0)
     nstep                     =          200


     ================================================================================
 
                                  Environ Setup Summary

     ================================================================================
 
     Please cite

          O. Andreussi, I. Dabo and N. Marzari, J. Chem. Phys. 136, 064102 (2012)

     in publications or presentations arising from this work.

     ================================================================================
 
     Parameters
     ==========

     compensation onset threshold      =               0.1000E+00
     static permittivity               =                    78.30
     surface tension in input (dyn/cm) =                    47.90
     surface tension in internal units =               0.6153E-04
     external pressure in input (GPa)  =                    -0.36
     external pressure in inter. units =              -0.2447E-04

     Solvent Boundary
     ================

     solvent mode                      =               electronic
     derivatives method                =                    chain
     numerical core for derivatives    =                      fft
     switching function adopted        =                     SCCS
     density limit for vacuum region   =               0.5000E-02
     density limit for bulk solvent    =               0.1000E-03

     Electrostatic Setup
     ===================

     electrostatic problem to solve    =              generalized
     numerical solver adopted          =                       cg
     type of auxiliary density adopted =                     none
     numerical core for poisson        =                      fft
     type of pbc corrections           =                parabolic
     numerical core for corrections    =                      1da

     ================================================================================
 

     celldm(1)=  12.104053  celldm(2)=   0.000000  celldm(3)=   0.000000
     celldm(4)=   0.000000  celldm(5)=   0.000000  celldm(6)=   0.000000

     crystal axes: (cart. coord. in units of alat)
               a(1) = (   1.000000   0.000000   0.000000 )  
               a(2) = (   0.000000   0.971735   0.000000 )  
               a(3) = (   0.000000   0.000000   3.455479 )  

     reciprocal axes: (cart. coord. in units 2 pi/alat)
               b(1) = (  1.000000  0.000000  0.000000 )  
               b(2) = (  0.000000  1.029087  0.000000 )  
               b(3) = (  0.000000  0.000000  0.289395 )  


     PseudoPot. # 1 for O  read from file:
     /gpfs/group/ixd4/default/Simon/pseudopotentials/materialscloud/SSSP_1.3.0_PBE_efficiency/O.pbe-n-kjpaw_psl.0.1.UPF
     MD5 check sum: 0234752ac141de4415c5fc33072bef88
     Pseudo is Projector augmented-wave + core cor, Zval =  6.0
     Generated using "atomic" code by A. Dal Corso  v.5.0.99 svn rev. 10869
     Shape of augmentation charge: BESSEL
     Using radial grid of 1095 points,  4 beta functions with: 
                l(1) =   0
                l(2) =   0
                l(3) =   1
                l(4) =   1
     Q(r) pseudized with 0 coefficients 


     PseudoPot. # 2 for Ru read from file:
     /gpfs/group/ixd4/default/Simon/pseudopotentials/materialscloud/SSSP_1.3.0_PBE_efficiency/Ru_ONCV_PBE-1.0.oncvpsp.upf
     MD5 check sum: be037bb81c227cfb9b1461a9f099f4bd
     Pseudo is Norm-conserving, Zval = 16.0
     Generated using ONCVPSP code by D. R. Hamann
     Using radial grid of 1458 points,  6 beta functions with: 
                l(1) =   0
                l(2) =   0
                l(3) =   1
                l(4) =   1
                l(5) =   2
                l(6) =   2

     PseudoPot. # 3 for H  read from file:
     /gpfs/group/ixd4/default/Simon/pseudopotentials/materialscloud/SSSP_1.3.0_PBE_efficiency/H.pbe-rrkjus_psl.1.0.0.UPF
     MD5 check sum: f52b6d4d1c606e5624b1dc7b2218f220
     Pseudo is Ultrasoft, Zval =  1.0
     Generated using "atomic" code by A. Dal Corso  v.5.1
     Using radial grid of  929 points,  2 beta functions with: 
                l(1) =   0
                l(2) =   0
     Q(r) pseudized with 0 coefficients 


     atomic species   valence    mass     pseudopotential
        O              6.00    15.99940     O ( 1.00)
        Ru            16.00   101.07000     Ru( 1.00)
        H              1.00     1.00794     H ( 1.00)

      2 Sym. Ops. (no inversion) found



   Cartesian axes

     site n.     atom                  positions (alat units)
         1           O   tau(   1) = (  -0.0209036   0.4633466   0.9356388  )
         2           O   tau(   2) = (   0.5073232   0.4844605   0.9277657  )
         3           O   tau(   3) = (  -0.0022603   0.0068536   1.0262229  )
         4           O   tau(   4) = (   0.4995108  -0.0004375   1.0695335  )
         5           Ru  tau(   5) = (   0.2516928   0.0010086   1.2285230  )
         6           Ru  tau(   6) = (   0.7456035   0.0011739   1.2309964  )
         7           O   tau(   7) = (   0.2490698   0.3010615   1.2333811  )
         8           O   tau(   8) = (   0.7492089   0.2966560   1.2377231  )
         9           Ru  tau(   9) = (  -0.0027820   0.4860392   1.2390155  )
        10           Ru  tau(  10) = (   0.5009484   0.4860274   1.2261853  )
        11           O   tau(  11) = (   0.2456661   0.6710429   1.2252225  )
        12           O   tau(  12) = (   0.7520421   0.6753744   1.2338588  )
        13           O   tau(  13) = (   0.0011527   0.0000799   1.4239049  )
        14           O   tau(  14) = (   0.4974823  -0.0029961   1.4245680  )
        15           O   tau(  15) = (   0.0005303   0.4865600   1.5414767  )
        16           O   tau(  16) = (   0.5004500   0.4879509   1.5263648  )
        17           Ru  tau(  17) = (   0.0017019  -0.0002872   1.7277432  )
        18           Ru  tau(  18) = (   0.4973860   0.0002286   1.7277432  )
        19           O   tau(  19) = (   0.2509332   0.1910266   1.7277432  )
        20           O   tau(  20) = (   0.7485810   0.1858888   1.7277432  )
        21           Ru  tau(  21) = (   0.2550107   0.4861613   1.7277432  )
        22           Ru  tau(  22) = (   0.7436211   0.4861999   1.7277432  )
        23           O   tau(  23) = (   0.2500806   0.7813839   1.7277432  )
        24           O   tau(  24) = (   0.7496694   0.7860423   1.7277432  )
        25           O   tau(  25) = (   0.0005303   0.4865600   1.9140063  )
        26           O   tau(  26) = (   0.5004500   0.4879509   1.9291182  )
        27           O   tau(  27) = (   0.0011527   0.0000799   2.0315780  )
        28           O   tau(  28) = (   0.4974823  -0.0029961   2.0309150  )
        29           Ru  tau(  29) = (   0.2516928   0.0010086   2.2269600  )
        30           Ru  tau(  30) = (   0.7456035   0.0011739   2.2244865  )
        31           O   tau(  31) = (   0.2490698   0.3010615   2.2221019  )
        32           O   tau(  32) = (   0.7492089   0.2966560   2.2177599  )
        33           Ru  tau(  33) = (  -0.0027820   0.4860392   2.2164675  )
        34           Ru  tau(  34) = (   0.5009484   0.4860274   2.2292977  )
        35           O   tau(  35) = (   0.2456661   0.6710429   2.2302605  )
        36           O   tau(  36) = (   0.7520421   0.6753744   2.2216241  )
        37           O   tau(  37) = (  -0.0022603   0.0068536   2.4292635  )
        38           O   tau(  38) = (   0.4995108  -0.0004375   2.3859529  )
        39           O   tau(  39) = (  -0.0209036   0.4633466   2.5198441  )
        40           O   tau(  40) = (   0.5073232   0.4844605   2.5277172  )
        41           H   tau(  41) = (   0.1123514   0.4925837   0.8665051  )
        42           H   tau(  42) = (   0.1123514   0.4925837   2.5889744  )
        43           H   tau(  43) = (   0.6537023   0.4792311   0.8783488  )
        44           H   tau(  44) = (   0.6537023   0.4792311   2.5771307  )
        45           H   tau(  45) = (  -0.0040106   0.1246652   0.9360888  )
        46           H   tau(  46) = (  -0.0040106   0.1246652   2.5193907  )

     number of k points=     2  Marzari-Vanderbilt smearing, width (Ry)=  0.0300
                       cart. coord. in units 2pi/alat
        k(    1) = (   0.2500000   0.2572717   0.0000000), wk =   1.0000000
        k(    2) = (  -0.2500000   0.2572717   0.0000000), wk =   1.0000000

     Dense  grid:  1123933 G-vectors     FFT dimensions: (  90,  90, 300)

     Smooth grid:   284439 G-vectors     FFT dimensions: (  60,  54, 192)

     Estimated max dynamical RAM per process >     184.85 MB

     Estimated total dynamical RAM >       3.61 GB

     Check: negative core charge=   -0.000001

     Initial potential from superposition of free atoms

     starting charge     365.9933, renormalised to     366.0000

     add environment contribution to local potential
     Polarization accuracy = 8.6E-12, # of iterations =  24

     negative rho (up, down):  2.880E-05 0.000E+00
     Starting wfcs are  238 randomized atomic wfcs
     Checking if some PAW data can be deallocated... 

     total cpu time spent up to now is     1058.8 secs

     per-process dynamical memory:   157.4 Mb

     Self-consistent Calculation

     iteration #  1     ecut=    50.00 Ry     beta= 0.70
     Davidson diagonalization with overlap
     ethr =  1.00E-02,  avg # of iterations =  2.0

     total cpu time spent up to now is     1377.8 secs

     total energy              =   -3432.98061041 Ry
     estimated scf accuracy    <       9.44761469 Ry
     electrostatic embedding   =      -0.00186386 Ry
     cavitation energy         =       0.02005348 Ry
     PV energy                 =      -0.08600468 Ry
     correction to one-el term =     215.78913215 Ry

     iteration #  2     ecut=    50.00 Ry     beta= 0.70
     Davidson diagonalization with overlap
     ethr =  2.58E-03,  avg # of iterations =  2.0

     total cpu time spent up to now is     1684.1 secs

     total energy              =   -3435.13969401 Ry
     estimated scf accuracy    <       1.69518324 Ry
     electrostatic embedding   =      -0.00272420 Ry
     cavitation energy         =       0.01999737 Ry
     PV energy                 =      -0.08646883 Ry
     correction to one-el term =     215.79174827 Ry

     iteration #  3     ecut=    50.00 Ry     beta= 0.70
     Davidson diagonalization with overlap
     ethr =  4.63E-04,  avg # of iterations =  1.0

     total cpu time spent up to now is     2037.1 secs

     total energy              =   -3435.32200865 Ry
     estimated scf accuracy    <       0.28024531 Ry
     electrostatic embedding   =      -0.00299536 Ry
     cavitation energy         =       0.02008015 Ry
     PV energy                 =      -0.08626380 Ry
     correction to one-el term =     215.79234228 Ry

     iteration #  4     ecut=    50.00 Ry     beta= 0.70
     Davidson diagonalization with overlap
     ethr =  7.66E-05,  avg # of iterations =  1.0

     total cpu time spent up to now is     2403.7 secs

     total energy              =   -3435.32497675 Ry
     estimated scf accuracy    <       0.18319975 Ry
     electrostatic embedding   =      -0.00308530 Ry
     cavitation energy         =       0.02023018 Ry
     PV energy                 =      -0.08572628 Ry
     correction to one-el term =     215.79231934 Ry

     iteration #  5     ecut=    50.00 Ry     beta= 0.70
     Davidson diagonalization with overlap
     ethr =  5.01E-05,  avg # of iterations =  1.0

     total cpu time spent up to now is     2711.9 secs

     total energy              =   -3435.33072737 Ry
     estimated scf accuracy    <       0.11893104 Ry
     electrostatic embedding   =      -0.00312564 Ry
     cavitation energy         =       0.02063504 Ry
     PV energy                 =      -0.08469839 Ry
     correction to one-el term =     215.79198046 Ry

     iteration #  6     ecut=    50.00 Ry     beta= 0.70
     Davidson diagonalization with overlap
     ethr =  3.25E-05,  avg # of iterations =  1.0

     add environment contribution to local potential
     Polarization accuracy = 8.0E-12, # of iterations =  37

     total cpu time spent up to now is     3009.6 secs

     total energy              =   -3435.32940425 Ry
     estimated scf accuracy    <       0.04930262 Ry
     electrostatic embedding   =      -0.00309004 Ry
     cavitation energy         =       0.02095301 Ry
     PV energy                 =      -0.08394489 Ry
     correction to one-el term =     215.79158820 Ry

     iteration #  7     ecut=    50.00 Ry     beta= 0.70
     Davidson diagonalization with overlap
     ethr =  1.35E-05,  avg # of iterations = 11.5

     add environment contribution to local potential
     Polarization accuracy = 3.6E-12, # of iterations =  39

     total cpu time spent up to now is     3345.5 secs

     total energy              =   -3435.34644446 Ry
     estimated scf accuracy    <       0.03523890 Ry
     electrostatic embedding   =      -0.02822622 Ry
     cavitation energy         =       0.02119947 Ry
     PV energy                 =      -0.08333163 Ry
     correction to one-el term =     188.68164289 Ry

     iteration #  8     ecut=    50.00 Ry     beta= 0.70
     Davidson diagonalization with overlap
     ethr =  9.63E-06,  avg # of iterations =  1.0

     add environment contribution to local potential
     Polarization accuracy = 4.9E-12, # of iterations =  43

     total cpu time spent up to now is     3682.0 secs

     total energy              =   -3435.34516049 Ry
     estimated scf accuracy    <       0.03614515 Ry
     electrostatic embedding   =      -0.03022912 Ry
     cavitation energy         =       0.02134304 Ry
     PV energy                 =      -0.08300446 Ry
     correction to one-el term =     187.73013324 Ry

     iteration #  9     ecut=    50.00 Ry     beta= 0.70
     Davidson diagonalization with overlap
     ethr =  9.63E-06,  avg # of iterations =  6.0

     add environment contribution to local potential
     Polarization accuracy = 7.4E-12, # of iterations =  49

     total cpu time spent up to now is     4015.0 secs

     total energy              =   -3435.34354971 Ry
     estimated scf accuracy    <       0.03381037 Ry
     electrostatic embedding   =      -0.03460804 Ry
     cavitation energy         =       0.02161911 Ry
     PV energy                 =      -0.08241501 Ry
     correction to one-el term =     186.03348729 Ry

     iteration # 10     ecut=    50.00 Ry     beta= 0.70
     Davidson diagonalization with overlap
     ethr =  9.24E-06,  avg # of iterations = 12.0

     add environment contribution to local potential
     Polarization accuracy = 7.4E-12, # of iterations =  48

     total cpu time spent up to now is     4422.1 secs

     total energy              =   -3435.34301241 Ry
     estimated scf accuracy    <       0.04045100 Ry
     electrostatic embedding   =      -0.04335085 Ry
     cavitation energy         =       0.02199857 Ry
     PV energy                 =      -0.08159420 Ry
     correction to one-el term =     184.03918399 Ry

     iteration # 11     ecut=    50.00 Ry     beta= 0.70
     Davidson diagonalization with overlap
     ethr =  9.24E-06,  avg # of iterations =  1.0

     negative rho (up, down):  6.620E-05 0.000E+00

     add environment contribution to local potential
     Polarization accuracy = 1.8E-12, # of iterations =  49

     total cpu time spent up to now is     4712.6 secs

     total energy              =   -3435.34456577 Ry
     estimated scf accuracy    <       0.01250575 Ry
     electrostatic embedding   =      -0.04021500 Ry
     cavitation energy         =       0.02177682 Ry
     PV energy                 =      -0.08176230 Ry
     correction to one-el term =     185.31167681 Ry

     iteration # 12     ecut=    50.00 Ry     beta= 0.70
     Davidson diagonalization with overlap
     ethr =  3.42E-06,  avg # of iterations =  5.0

     negative rho (up, down):  9.553E-05 0.000E+00

     add environment contribution to local potential
     Polarization accuracy = 4.4E-12, # of iterations =  48

     total cpu time spent up to now is     5047.5 secs

     total energy              =   -3435.34539768 Ry
     estimated scf accuracy    <       0.00469122 Ry
     electrostatic embedding   =      -0.03999709 Ry
     cavitation energy         =       0.02170350 Ry
     PV energy                 =      -0.08174772 Ry
     correction to one-el term =     185.93326841 Ry

     iteration # 13     ecut=    50.00 Ry     beta= 0.70
     Davidson diagonalization with overlap
     ethr =  1.28E-06,  avg # of iterations =  7.0

     negative rho (up, down):  3.763E-05 0.000E+00

     add environment contribution to local potential
     Polarization accuracy = 5.1E-12, # of iterations =  47

     total cpu time spent up to now is     5381.3 secs

     total energy              =   -3435.34623672 Ry
     estimated scf accuracy    <       0.00418413 Ry
     electrostatic embedding   =      -0.03793887 Ry
     cavitation energy         =       0.02155324 Ry
     PV energy                 =      -0.08187297 Ry
     correction to one-el term =     187.28714625 Ry

     iteration # 14     ecut=    50.00 Ry     beta= 0.70
     Davidson diagonalization with overlap
     ethr =  1.14E-06,  avg # of iterations =  7.0

     negative rho (up, down):  5.111E-07 0.000E+00

     add environment contribution to local potential
     Polarization accuracy = 2.0E-12, # of iterations =  47

     total cpu time spent up to now is     5708.0 secs

     total energy              =   -3435.34682476 Ry
     estimated scf accuracy    <       0.00227132 Ry
     electrostatic embedding   =      -0.03502898 Ry
     cavitation energy         =       0.02140221 Ry
     PV energy                 =      -0.08205665 Ry
     correction to one-el term =     188.73425653 Ry

     iteration # 15     ecut=    50.00 Ry     beta= 0.70
     Davidson diagonalization with overlap
     ethr =  6.21E-07,  avg # of iterations =  8.0

     negative rho (up, down):  7.720E-06 0.000E+00

     add environment contribution to local potential
     Polarization accuracy = 5.6E-12, # of iterations =  45

     total cpu time spent up to now is     6007.0 secs

     total energy              =   -3435.34711453 Ry
     estimated scf accuracy    <       0.00081888 Ry
     electrostatic embedding   =      -0.03340757 Ry
     cavitation energy         =       0.02136801 Ry
     PV energy                 =      -0.08212913 Ry
     correction to one-el term =     189.36020176 Ry

     iteration # 16     ecut=    50.00 Ry     beta= 0.70
     Davidson diagonalization with overlap
     ethr =  2.24E-07,  avg # of iterations = 17.0

     negative rho (up, down):  2.599E-05 0.000E+00

     add environment contribution to local potential
     Polarization accuracy = 5.5E-12, # of iterations =  45

     total cpu time spent up to now is     6277.8 secs

     total energy              =   -3435.34734562 Ry
     estimated scf accuracy    <       0.00040474 Ry
     electrostatic embedding   =      -0.03168160 Ry
     cavitation energy         =       0.02131336 Ry
     PV energy                 =      -0.08221533 Ry
     correction to one-el term =     190.12741958 Ry

     iteration # 17     ecut=    50.00 Ry     beta= 0.70
     Davidson diagonalization with overlap
     ethr =  1.11E-07,  avg # of iterations =  7.0

     negative rho (up, down):  4.855E-06 0.000E+00

     add environment contribution to local potential
     Polarization accuracy = 7.2E-12, # of iterations =  46

     total cpu time spent up to now is     6572.8 secs

     total energy              =   -3435.34741017 Ry
     estimated scf accuracy    <       0.00004554 Ry
     electrostatic embedding   =      -0.03060613 Ry
     cavitation energy         =       0.02132911 Ry
     PV energy                 =      -0.08223869 Ry
     correction to one-el term =     190.50788199 Ry

     iteration # 18     ecut=    50.00 Ry     beta= 0.70
     Davidson diagonalization with overlap
     ethr =  1.24E-08,  avg # of iterations =  2.0

     negative rho (up, down):  1.898E-04 0.000E+00

     add environment contribution to local potential
     Polarization accuracy = 7.9E-12, # of iterations =  45

     total cpu time spent up to now is     6932.2 secs

     total energy              =   -3435.34741888 Ry
     estimated scf accuracy    <       0.00003129 Ry
     electrostatic embedding   =      -0.03072139 Ry
     cavitation energy         =       0.02135006 Ry
     PV energy                 =      -0.08220628 Ry
     correction to one-el term =     190.47406163 Ry

     iteration # 19     ecut=    50.00 Ry     beta= 0.70
     Davidson diagonalization with overlap
     ethr =  8.55E-09,  avg # of iterations =  3.0

     negative rho (up, down):  9.331E-04 0.000E+00

     add environment contribution to local potential
     Polarization accuracy = 8.7E-12, # of iterations =  46

     total cpu time spent up to now is     7222.5 secs

     total energy              =   -3435.34743225 Ry
     estimated scf accuracy    <       0.00001460 Ry
     electrostatic embedding   =      -0.03043298 Ry
     cavitation energy         =       0.02134832 Ry
     PV energy                 =      -0.08221289 Ry
     correction to one-el term =     190.57809990 Ry

     iteration # 20     ecut=    50.00 Ry     beta= 0.70
     Davidson diagonalization with overlap
     ethr =  3.99E-09,  avg # of iterations =  3.0

     negative rho (up, down):  1.721E-04 0.000E+00

     add environment contribution to local potential
     Polarization accuracy = 2.1E-12, # of iterations =  46

     total cpu time spent up to now is     7547.3 secs

     total energy              =   -3435.34743105 Ry
     estimated scf accuracy    <       0.00000242 Ry
     electrostatic embedding   =      -0.03031054 Ry
     cavitation energy         =       0.02134987 Ry
     PV energy                 =      -0.08220446 Ry
     correction to one-el term =     190.65847027 Ry

     iteration # 21     ecut=    50.00 Ry     beta= 0.70
     Davidson diagonalization with overlap
     ethr =  6.61E-10,  avg # of iterations = 13.5

     negative rho (up, down):  3.616E-04 0.000E+00

     add environment contribution to local potential
     Polarization accuracy = 4.7E-12, # of iterations =  46

     total cpu time spent up to now is     7861.2 secs

     total energy              =   -3435.34743119 Ry
     estimated scf accuracy    <       0.00000181 Ry
     electrostatic embedding   =      -0.03039737 Ry
     cavitation energy         =       0.02135644 Ry
     PV energy                 =      -0.08218805 Ry
     correction to one-el term =     190.59877206 Ry

     iteration # 22     ecut=    50.00 Ry     beta= 0.70
     Davidson diagonalization with overlap
     ethr =  4.95E-10,  avg # of iterations =  1.0

     negative rho (up, down):  2.611E-04 0.000E+00

     add environment contribution to local potential
     Polarization accuracy = 2.1E-12, # of iterations =  47

     total cpu time spent up to now is     8178.7 secs

     total energy              =   -3435.34743162 Ry
     estimated scf accuracy    <       0.00000045 Ry
     electrostatic embedding   =      -0.03036915 Ry
     cavitation energy         =       0.02135454 Ry
     PV energy                 =      -0.08218652 Ry
     correction to one-el term =     190.61972191 Ry

     iteration # 23     ecut=    50.00 Ry     beta= 0.70
     Davidson diagonalization with overlap
     ethr =  1.24E-10,  avg # of iterations =  1.0

     negative rho (up, down):  1.990E-04 0.000E+00

     add environment contribution to local potential
     Polarization accuracy = 2.6E-12, # of iterations =  46

     total cpu time spent up to now is     8496.2 secs

     total energy              =   -3435.34743184 Ry
     estimated scf accuracy    <       0.00000019 Ry
     electrostatic embedding   =      -0.03038218 Ry
     cavitation energy         =       0.02135585 Ry
     PV energy                 =      -0.08218311 Ry
     correction to one-el term =     190.60767691 Ry

     iteration # 24     ecut=    50.00 Ry     beta= 0.70
     Davidson diagonalization with overlap
     ethr =  5.16E-11,  avg # of iterations =  1.0

     negative rho (up, down):  1.762E-04 0.000E+00

     add environment contribution to local potential
     Polarization accuracy = 2.3E-12, # of iterations =  46

     total cpu time spent up to now is     8809.2 secs

     total energy              =   -3435.34743206 Ry
     estimated scf accuracy    <       0.00000016 Ry
     electrostatic embedding   =      -0.03039383 Ry
     cavitation energy         =       0.02135620 Ry
     PV energy                 =      -0.08218159 Ry
     correction to one-el term =     190.59763366 Ry

     iteration # 25     ecut=    50.00 Ry     beta= 0.70
     Davidson diagonalization with overlap
     ethr =  4.34E-11,  avg # of iterations =  1.0

     negative rho (up, down):  1.646E-04 0.000E+00

     add environment contribution to local potential
     Polarization accuracy = 2.2E-12, # of iterations =  47

     total cpu time spent up to now is     9105.4 secs

     total energy              =   -3435.34743224 Ry
     estimated scf accuracy    <       0.00000011 Ry
     electrostatic embedding   =      -0.03039765 Ry
     cavitation energy         =       0.02135626 Ry
     PV energy                 =      -0.08218130 Ry
     correction to one-el term =     190.59333776 Ry

     iteration # 26     ecut=    50.00 Ry     beta= 0.70
     Davidson diagonalization with overlap
     ethr =  3.08E-11,  avg # of iterations =  1.0

     negative rho (up, down):  1.430E-04 0.000E+00

     add environment contribution to local potential
     Polarization accuracy = 2.2E-12, # of iterations =  47

     total cpu time spent up to now is     9457.8 secs

     total energy              =   -3435.34743263 Ry
     estimated scf accuracy    <       0.00000010 Ry
     electrostatic embedding   =      -0.03039456 Ry
     cavitation energy         =       0.02135645 Ry
     PV energy                 =      -0.08218124 Ry
     correction to one-el term =     190.59097657 Ry

     iteration # 27     ecut=    50.00 Ry     beta= 0.70
     Davidson diagonalization with overlap
     ethr =  2.62E-11,  avg # of iterations =  1.0

     negative rho (up, down):  1.343E-04 0.000E+00

     add environment contribution to local potential
     Polarization accuracy = 3.2E-12, # of iterations =  46

     total cpu time spent up to now is     9808.1 secs

     total energy              =   -3435.34743300 Ry
     estimated scf accuracy    <       0.00000007 Ry
     electrostatic embedding   =      -0.03039554 Ry
     cavitation energy         =       0.02135670 Ry
     PV energy                 =      -0.08218091 Ry
     correction to one-el term =     190.58711259 Ry

     iteration # 28     ecut=    50.00 Ry     beta= 0.70
     Davidson diagonalization with overlap
     ethr =  2.00E-11,  avg # of iterations =  1.0

     negative rho (up, down):  1.399E-04 0.000E+00

     add environment contribution to local potential
     Polarization accuracy = 2.1E-12, # of iterations =  47

     total cpu time spent up to now is    10110.8 secs

     total energy              =   -3435.34743345 Ry
     estimated scf accuracy    <       0.00000007 Ry
     electrostatic embedding   =      -0.03039386 Ry
     cavitation energy         =       0.02135683 Ry
     PV energy                 =      -0.08218079 Ry
     correction to one-el term =     190.58640046 Ry

     iteration # 29     ecut=    50.00 Ry     beta= 0.70
     Davidson diagonalization with overlap
     ethr =  1.90E-11,  avg # of iterations =  1.0

     negative rho (up, down):  1.436E-04 0.000E+00

     add environment contribution to local potential
     Polarization accuracy = 6.3E-12, # of iterations =  46

     total cpu time spent up to now is    10450.5 secs

     total energy              =   -3435.34743379 Ry
     estimated scf accuracy    <       0.00000006 Ry
     electrostatic embedding   =      -0.03038994 Ry
     cavitation energy         =       0.02135679 Ry
     PV energy                 =      -0.08218105 Ry
     correction to one-el term =     190.58818072 Ry

     iteration # 30     ecut=    50.00 Ry     beta= 0.70
     Davidson diagonalization with overlap
     ethr =  1.75E-11,  avg # of iterations =  1.0

     negative rho (up, down):  1.448E-04 0.000E+00

     add environment contribution to local potential
     Polarization accuracy = 2.3E-12, # of iterations =  46

     total cpu time spent up to now is    10775.8 secs

     total energy              =   -3435.34743495 Ry
     estimated scf accuracy    <       0.00000006 Ry
     electrostatic embedding   =      -0.03038443 Ry
     cavitation energy         =       0.02135672 Ry
     PV energy                 =      -0.08218146 Ry
     correction to one-el term =     190.59032912 Ry

     iteration # 31     ecut=    50.00 Ry     beta= 0.70
     Davidson diagonalization with overlap
     ethr =  1.71E-11,  avg # of iterations =  2.0

     negative rho (up, down):  1.532E-04 0.000E+00

     add environment contribution to local potential
     Polarization accuracy = 9.4E-12, # of iterations =  45

     total cpu time spent up to now is    11114.9 secs

     total energy              =   -3435.34743776 Ry
     estimated scf accuracy    <       0.00000004 Ry
     electrostatic embedding   =      -0.03038182 Ry
     cavitation energy         =       0.02135662 Ry
     PV energy                 =      -0.08218121 Ry
     correction to one-el term =     190.59197935 Ry

     iteration # 32     ecut=    50.00 Ry     beta= 0.70
     Davidson diagonalization with overlap
     ethr =  1.20E-11,  avg # of iterations =  2.0

     negative rho (up, down):  1.552E-04 0.000E+00

     add environment contribution to local potential
     Polarization accuracy = 7.5E-12, # of iterations =  45

     total cpu time spent up to now is    11487.4 secs

     total energy              =   -3435.34744232 Ry
     estimated scf accuracy    <       0.00000004 Ry
     electrostatic embedding   =      -0.03038215 Ry
     cavitation energy         =       0.02135645 Ry
     PV energy                 =      -0.08218109 Ry
     correction to one-el term =     190.59285148 Ry

     iteration # 33     ecut=    50.00 Ry     beta= 0.70
     Davidson diagonalization with overlap
     ethr =  1.10E-11,  avg # of iterations =  3.0

     negative rho (up, down):  1.620E-04 0.000E+00

     add environment contribution to local potential
     Polarization accuracy = 6.5E-12, # of iterations =  45

     total cpu time spent up to now is    11823.9 secs

     total energy              =   -3435.34744910 Ry
     estimated scf accuracy    <       0.00000002 Ry
     electrostatic embedding   =      -0.03038403 Ry
     cavitation energy         =       0.02135633 Ry
     PV energy                 =      -0.08218082 Ry
     correction to one-el term =     190.59218192 Ry

     iteration # 34     ecut=    50.00 Ry     beta= 0.70
     Davidson diagonalization with overlap
     ethr =  5.73E-12,  avg # of iterations =  3.0

     negative rho (up, down):  1.608E-04 0.000E+00

     add environment contribution to local potential
     Polarization accuracy = 6.2E-12, # of iterations =  45

     total cpu time spent up to now is    12161.8 secs

     total energy              =   -3435.34745328 Ry
     estimated scf accuracy    <       0.00000002 Ry
     electrostatic embedding   =      -0.03038741 Ry
     cavitation energy         =       0.02135629 Ry
     PV energy                 =      -0.08218086 Ry
     correction to one-el term =     190.59178504 Ry

     iteration # 35     ecut=    50.00 Ry     beta= 0.70
     Davidson diagonalization with overlap
     ethr =  5.73E-12,  avg # of iterations =  2.0

     negative rho (up, down):  1.562E-04 0.000E+00

     add environment contribution to local potential
     Polarization accuracy = 5.6E-12, # of iterations =  46

     total cpu time spent up to now is    12490.7 secs

     total energy              =   -3435.34745509 Ry
     estimated scf accuracy    <          8.0E-09 Ry
     electrostatic embedding   =      -0.03038889 Ry
     cavitation energy         =       0.02135639 Ry
     PV energy                 =      -0.08218102 Ry
     correction to one-el term =     190.59084186 Ry

     iteration # 36     ecut=    50.00 Ry     beta= 0.70
     Davidson diagonalization with overlap
     ethr =  2.19E-12,  avg # of iterations =  2.0

     negative rho (up, down):  1.513E-04 0.000E+00

     add environment contribution to local potential
     Polarization accuracy = 9.4E-12, # of iterations =  45

     total cpu time spent up to now is    12799.2 secs

     total energy              =   -3435.34745706 Ry
     estimated scf accuracy    <          5.4E-09 Ry
     electrostatic embedding   =      -0.03038788 Ry
     cavitation energy         =       0.02135649 Ry
     PV energy                 =      -0.08218120 Ry
     correction to one-el term =     190.59056174 Ry

     iteration # 37     ecut=    50.00 Ry     beta= 0.70
     Davidson diagonalization with overlap
     ethr =  1.48E-12,  avg # of iterations =  2.0

     negative rho (up, down):  1.484E-04 0.000E+00

     add environment contribution to local potential
     Polarization accuracy = 5.9E-12, # of iterations =  45

     total cpu time spent up to now is    13102.6 secs

     total energy              =   -3435.34745806 Ry
     estimated scf accuracy    <          1.1E-09 Ry
     electrostatic embedding   =      -0.03038849 Ry
     cavitation energy         =       0.02135660 Ry
     PV energy                 =      -0.08218134 Ry
     correction to one-el term =     190.59008672 Ry

     iteration # 38     ecut=    50.00 Ry     beta= 0.70
     Davidson diagonalization with overlap
     ethr =  3.08E-13,  avg # of iterations =  5.0

     negative rho (up, down):  1.438E-04 0.000E+00

     the potential shift due to the Gaussian-smeared nuclei is    -1.3136 ev

     total cpu time spent up to now is    13405.8 secs

     End of self-consistent calculation

          k = 0.2500 0.2573 0.0000 ( 35510 PWs)   bands (ev):

   -77.9775 -77.9653 -77.9531 -77.9409 -77.6939 -77.6846 -77.6813 -77.6722
   -77.5881 -77.5657 -77.5638 -77.5522 -48.1376 -48.1254 -48.0711 -48.0589
   -48.0306 -48.0292 -48.0183 -48.0166 -47.9496 -47.9465 -47.9372 -47.9343
   -47.8757 -47.8622 -47.8291 -47.8223 -47.8082 -47.7949 -47.7940 -47.7821
   -47.6171 -47.6046 -47.5384 -47.5306 -47.5232 -47.5107 -47.5045 -47.4919
   -47.4786 -47.4688 -47.4651 -47.4393 -47.4294 -47.4109 -47.3780 -47.3304
   -24.1371 -24.0719 -23.8497 -23.6508 -23.5704 -23.4631 -23.3415 -23.2897
   -23.2124 -23.1833 -23.1375 -23.0891 -23.0795 -23.0128 -22.9895 -22.9369
   -22.7691 -22.7488 -22.7304 -22.7194 -22.6924 -22.6591 -22.5778 -22.5592
   -22.5282 -22.5119 -22.4216 -22.2812 -12.2112 -12.0030 -11.9575 -11.8969
   -11.8764 -11.7681 -11.5747 -11.4745 -11.4195 -11.3637 -11.3334 -11.2662
   -11.1508 -11.1336 -11.0615 -10.9942 -10.9689 -10.9637 -10.9171 -10.9000
   -10.8013 -10.7732 -10.6991 -10.6246 -10.4494 -10.3690 -10.3364 -10.2093
   -10.1916 -10.0513  -9.8508  -9.8267  -9.8085  -9.6871  -9.6604  -9.5389
    -9.4579  -9.2787  -9.1557  -9.1455  -9.0355  -9.0188  -8.9470  -8.8841
    -8.8557  -8.7115  -8.6810  -8.5341  -8.5301  -8.4539  -8.4203  -8.3668
    -8.3594  -8.2897  -8.2764  -8.1696  -8.1634  -8.0947  -8.0215  -7.9650
    -7.9635  -7.8313  -7.7579  -7.6640  -7.5096  -7.4961  -7.4444  -7.3986
    -7.2919  -7.2772  -7.1344  -7.0482  -7.0381  -6.9301  -6.8466  -6.8017
    -6.7396  -6.6782  -6.6422  -6.5988  -6.4786  -6.4118  -6.1818  -6.1705
    -5.2702  -5.2439  -5.1748  -5.1054  -5.0980  -5.0874  -5.0437  -4.9440
    -4.9208  -4.8769  -4.8575  -4.8007  -4.7555  -4.7489  -4.6962  -4.6452
    -4.5979  -4.5407  -4.5101  -4.4606  -4.3149  -4.3008  -4.2422  -4.1097
    -4.0955  -3.9610  -3.7620  -3.6933  -3.5859  -3.3935  -3.3848  -3.3524
    -3.3456  -3.2878  -3.1359  -2.9183  -2.3157  -1.9673  -1.8725  -1.8240
    -1.7633  -1.7053  -1.4991  -0.8732  -0.8499  -0.6124  -0.5102  -0.4440
    -0.4013  -0.3283  -0.2653  -0.2511  -0.0280   0.1181   0.2195   0.3996
     0.5270   0.5467   0.6444   1.0096

          k =-0.2500 0.2573 0.0000 ( 35510 PWs)   bands (ev):

   -77.9775 -77.9653 -77.9531 -77.9409 -77.6939 -77.6846 -77.6813 -77.6722
   -77.5881 -77.5657 -77.5638 -77.5522 -48.1375 -48.1253 -48.0715 -48.0593
   -48.0301 -48.0292 -48.0178 -48.0168 -47.9496 -47.9465 -47.9372 -47.9344
   -47.8757 -47.8622 -47.8291 -47.8223 -47.8082 -47.7949 -47.7940 -47.7821
   -47.6168 -47.6044 -47.5382 -47.5308 -47.5242 -47.5117 -47.5038 -47.4913
   -47.4785 -47.4688 -47.4650 -47.4394 -47.4293 -47.4109 -47.3780 -47.3304
   -24.1368 -24.0716 -23.8510 -23.6533 -23.5712 -23.4608 -23.3395 -23.2806
   -23.2095 -23.1840 -23.1425 -23.0949 -23.0832 -23.0114 -22.9911 -22.9379
   -22.7692 -22.7518 -22.7243 -22.7190 -22.6875 -22.6598 -22.5794 -22.5617
   -22.5285 -22.5113 -22.4214 -22.2811 -12.2163 -12.0195 -11.9500 -11.8943
   -11.8536 -11.7689 -11.5660 -11.4825 -11.4414 -11.3596 -11.3312 -11.2730
   -11.1549 -11.1487 -11.0361 -10.9823 -10.9712 -10.9519 -10.9042 -10.8971
   -10.7977 -10.7812 -10.7068 -10.6586 -10.4324 -10.3992 -10.3672 -10.1762
   -10.1546 -10.0602  -9.8595  -9.8537  -9.7883  -9.6768  -9.6054  -9.5368
    -9.4817  -9.2642  -9.1810  -9.1743  -9.0710  -8.9601  -8.9520  -8.8885
    -8.8355  -8.7513  -8.6482  -8.6160  -8.5400  -8.4595  -8.4373  -8.3607
    -8.3350  -8.2615  -8.2538  -8.1745  -8.1519  -8.0298  -8.0204  -7.9868
    -7.9613  -7.8436  -7.7764  -7.6621  -7.5311  -7.5232  -7.4120  -7.3812
    -7.2920  -7.2335  -7.1711  -7.0792  -7.0732  -6.8875  -6.8487  -6.8206
    -6.7206  -6.6912  -6.6821  -6.5562  -6.5104  -6.3272  -6.2032  -6.1611
    -5.2673  -5.2570  -5.1949  -5.1140  -5.1077  -5.0447  -5.0335  -4.9453
    -4.9147  -4.8951  -4.8720  -4.8129  -4.7660  -4.7575  -4.7020  -4.6250
    -4.5909  -4.5347  -4.4907  -4.4672  -4.3368  -4.3254  -4.2406  -4.0977
    -4.0672  -3.9663  -3.7647  -3.6965  -3.5820  -3.3935  -3.3848  -3.3511
    -3.3447  -3.2892  -3.1366  -2.9174  -2.3159  -1.9645  -1.8704  -1.8255
    -1.7633  -1.7070  -1.5008  -0.8712  -0.8467  -0.6101  -0.5062  -0.4398
    -0.3980  -0.3342  -0.2624  -0.2600  -0.0307   0.1148   0.2298   0.4021
     0.5289   0.5427   0.6351   1.0078

     the Fermi energy is    -4.1896 ev

!    total energy              =   -3435.34745843 Ry
     estimated scf accuracy    <          5.7E-10 Ry
     smearing contrib. (-TS)   =       0.05827779 Ry
     internal energy E=F+TS    =   -3435.40573622 Ry

     The total energy is F=E-TS. E is the sum of the following terms:
     one-electron contribution =  -25066.35686282 Ry
     hartree contribution      =   12514.18152157 Ry
     xc contribution           =    -447.72826817 Ry
     ewald contribution        =    9640.51331973 Ry
     one-center paw contrib.   =    -266.51398380 Ry
     electrostatic embedding   =      -0.03038900 Ry
     cavitation energy         =       0.02135664 Ry
     PV energy                 =      -0.08218133 Ry
     correction to one-el term =     190.58975096 Ry

     WARNING: you are using the parabolic pbc correction;
              the potential shift above must be added to 
              band and Fermi energies.

     convergence has been achieved in  38 iterations

     negative rho (up, down):  1.438E-04 0.000E+00

     Forces acting on atoms (cartesian axes, Ry/au):

     atom    1 type  1   force =     0.00265161   -0.00086741   -0.00727217
     atom    2 type  1   force =     0.00627120   -0.00051563   -0.00642174
     atom    3 type  1   force =     0.00101486   -0.05533530    0.04095574
     atom    4 type  1   force =     0.00002096    0.00010599   -0.01267497
     atom    5 type  2   force =     0.00842221   -0.00280654    0.00210761
     atom    6 type  2   force =    -0.00885885   -0.00326532    0.00096434
     atom    7 type  1   force =    -0.00050693    0.01405309    0.00073320
     atom    8 type  1   force =     0.00073394    0.02834500    0.00173137
     atom    9 type  2   force =     0.00745304   -0.00046069    0.00199684
     atom   10 type  2   force =    -0.00480848    0.00224547   -0.00122694
     atom   11 type  1   force =     0.00019192   -0.01054881   -0.00038471
     atom   12 type  1   force =    -0.00007460   -0.02459755    0.00024051
     atom   13 type  1   force =     0.00018517   -0.00002901   -0.00176123
     atom   14 type  1   force =    -0.00022403    0.00034230   -0.00103420
     atom   15 type  1   force =    -0.00055708   -0.00028063   -0.00197478
     atom   16 type  1   force =    -0.00188518   -0.00004895    0.00854557
     atom   17 type  2   force =    -0.00800221    0.00115264    0.00000000
     atom   18 type  2   force =     0.00796286   -0.00074833    0.00000000
     atom   19 type  1   force =    -0.00138545   -0.03140213    0.00000000
     atom   20 type  1   force =     0.00176677   -0.01403324    0.00000000
     atom   21 type  2   force =    -0.00493777    0.00027069    0.00000000
     atom   22 type  2   force =     0.00598034   -0.00060965    0.00000000
     atom   23 type  1   force =    -0.00050613    0.03150822    0.00000000
     atom   24 type  1   force =     0.00106235    0.01484223    0.00000000
     atom   25 type  1   force =    -0.00055708   -0.00028063    0.00197478
     atom   26 type  1   force =    -0.00188518   -0.00004895   -0.00854557
     atom   27 type  1   force =     0.00018517   -0.00002901    0.00176123
     atom   28 type  1   force =    -0.00022403    0.00034230    0.00103420
     atom   29 type  2   force =     0.00842221   -0.00280654   -0.00210761
     atom   30 type  2   force =    -0.00885885   -0.00326532   -0.00096434
     atom   31 type  1   force =    -0.00050693    0.01405309   -0.00073320
     atom   32 type  1   force =     0.00073394    0.02834500   -0.00173137
     atom   33 type  2   force =     0.00745304   -0.00046069   -0.00199684
     atom   34 type  2   force =    -0.00480848    0.00224547    0.00122694
     atom   35 type  1   force =     0.00019192   -0.01054881    0.00038471
     atom   36 type  1   force =    -0.00007460   -0.02459755   -0.00024051
     atom   37 type  1   force =     0.00101486   -0.05533530   -0.04095574
     atom   38 type  1   force =     0.00002096    0.00010599    0.01267497
     atom   39 type  1   force =     0.00265161   -0.00086741    0.00727217
     atom   40 type  1   force =     0.00627120   -0.00051563    0.00642174
     atom   41 type  3   force =    -0.00286699   -0.00006261    0.00067180
     atom   42 type  3   force =    -0.00286699   -0.00006261   -0.00067180
     atom   43 type  3   force =    -0.00702557    0.00053859    0.00163875
     atom   44 type  3   force =    -0.00702557    0.00053859   -0.00163875
     atom   45 type  3   force =    -0.00110759    0.05269779   -0.03859723
     atom   46 type  3   force =    -0.00110759    0.05269779    0.03859723
     The non-local contrib.  to forces
     atom    1 type  1   force =     1.67348889    0.35866695    0.15480942
     atom    2 type  1   force =     1.70851462   -0.06232874    0.47823716
     atom    3 type  1   force =    -0.01073086    1.49032258   -0.06015505
     atom    4 type  1   force =     0.00062338    0.02048697    1.05312626
     atom    5 type  2   force =     0.04777950   -0.00120700   -0.00919140
     atom    6 type  2   force =    -0.04534361    0.00022695   -0.00472142
     atom    7 type  1   force =     0.00087576   -0.03886671    0.00672156
     atom    8 type  1   force =    -0.02407016   -0.01594167   -0.02676848
     atom    9 type  2   force =     0.01141167    0.00262036    0.03425699
     atom   10 type  2   force =    -0.00393563    0.00286139    0.02556926
     atom   11 type  1   force =    -0.02936085    0.01107032    0.06316052
     atom   12 type  1   force =     0.00779071   -0.02324317    0.02271414
     atom   13 type  1   force =     0.01651536   -0.00221718    0.03193161
     atom   14 type  1   force =    -0.00071824    0.05247826   -0.03050420
     atom   15 type  1   force =    -0.00116062   -0.01345486   -0.02138966
     atom   16 type  1   force =     0.01809350   -0.01105133    0.11105156
     atom   17 type  2   force =    -0.00076007    0.00186237    0.00000000
     atom   18 type  2   force =     0.00354127   -0.00114777    0.00000000
     atom   19 type  1   force =     0.04107550   -0.03238743    0.00000000
     atom   20 type  1   force =    -0.03662657    0.00720903    0.00000000
     atom   21 type  2   force =     0.01369918    0.00167319    0.00000000
     atom   22 type  2   force =     0.00425109   -0.00142406    0.00000000
     atom   23 type  1   force =     0.02503542    0.03427089    0.00000000
     atom   24 type  1   force =    -0.01916050   -0.00503917    0.00000000
     atom   25 type  1   force =    -0.00116062   -0.01345486    0.02138966
     atom   26 type  1   force =     0.01809350   -0.01105133   -0.11105156
     atom   27 type  1   force =     0.01651536   -0.00221718   -0.03193161
     atom   28 type  1   force =    -0.00071824    0.05247826    0.03050420
     atom   29 type  2   force =     0.04777950   -0.00120700    0.00919140
     atom   30 type  2   force =    -0.04534361    0.00022695    0.00472142
     atom   31 type  1   force =     0.00087576   -0.03886671   -0.00672156
     atom   32 type  1   force =    -0.02407016   -0.01594167    0.02676848
     atom   33 type  2   force =     0.01141167    0.00262036   -0.03425699
     atom   34 type  2   force =    -0.00393563    0.00286139   -0.02556926
     atom   35 type  1   force =    -0.02936085    0.01107032   -0.06316052
     atom   36 type  1   force =     0.00779071   -0.02324317   -0.02271414
     atom   37 type  1   force =    -0.01073086    1.49032258    0.06015505
     atom   38 type  1   force =     0.00062338    0.02048697   -1.05312626
     atom   39 type  1   force =     1.67348889    0.35866695   -0.15480942
     atom   40 type  1   force =     1.70851462   -0.06232874   -0.47823716
     atom   41 type  3   force =    -0.09287095   -0.02068799    0.05103595
     atom   42 type  3   force =    -0.09287095   -0.02068799   -0.05103595
     atom   43 type  3   force =    -0.09730320    0.00342399    0.03517044
     atom   44 type  3   force =    -0.09730320    0.00342399   -0.03517044
     atom   45 type  3   force =     0.00152198   -0.09458782    0.07518390
     atom   46 type  3   force =     0.00152198   -0.09458782   -0.07518390
     The ionic contribution  to forces
     atom    1 type  1   force =    -2.28030150   -0.37397390  -93.75053281
     atom    2 type  1   force =    -3.19891128    0.26835589  -94.91007141
     atom    3 type  1   force =     0.17084517   -3.25081638  -90.72251005
     atom    4 type  1   force =    -0.14447656   -0.27093970  -92.99312126
     atom    5 type  2   force =    -3.04202873   -0.82875347 -170.46007063
     atom    6 type  2   force =     3.12258519   -0.92544040 -169.24262037
     atom    7 type  1   force =    -0.07501329   -1.14793069  -62.68363299
     atom    8 type  1   force =     0.09227504   -0.99983672  -61.51956599
     atom    9 type  2   force =     1.07419346    1.19490076 -164.29386232
     atom   10 type  2   force =    -1.17564206    0.68864116 -169.55744106
     atom   11 type  1   force =    -0.13692459    1.50195249  -64.59545433
     atom   12 type  1   force =     0.22530079    1.40122662  -62.75324577
     atom   13 type  1   force =    -0.01059913   -0.17307774  -37.88500511
     atom   14 type  1   force =    -0.12500780   -0.29449817  -36.68686683
     atom   15 type  1   force =     0.00842491    0.07312725  -24.63057668
     atom   16 type  1   force =    -0.19178204    0.14432481  -26.30659855
     atom   17 type  2   force =    -0.12326178    0.10681513   -0.00044776
     atom   18 type  2   force =     0.20042914    0.09797344   -0.00045456
     atom   19 type  1   force =    -0.36500477    0.54822653   -0.00007722
     atom   20 type  1   force =     0.35585903    0.98109038   -0.00007970
     atom   21 type  2   force =     0.14978956   -0.03636379   -0.00026245
     atom   22 type  2   force =     0.22835194   -0.12718701   -0.00026990
     atom   23 type  1   force =    -0.29474299   -0.58395609   -0.00007578
     atom   24 type  1   force =     0.26359722   -0.92495016   -0.00007859
     atom   25 type  1   force =     0.00841877    0.07312715   24.63036628
     atom   26 type  1   force =    -0.19178466    0.14432656   26.30645668
     atom   27 type  1   force =    -0.01060094   -0.17307694   37.88530123
     atom   28 type  1   force =    -0.12500616   -0.29450173   36.68719285
     atom   29 type  2   force =    -3.04196660   -0.82875696  170.46031908
     atom   30 type  2   force =     3.12252176   -0.92544466  169.24287457
     atom   31 type  1   force =    -0.07501041   -1.14796160   62.68369239
     atom   32 type  1   force =     0.09227418   -0.99986969   61.51962409
     atom   33 type  2   force =     1.07418964    1.19490499  164.29398346
     atom   34 type  2   force =    -1.17565088    0.68864289  169.55756962
     atom   35 type  1   force =    -0.13692326    1.50198444   64.59551290
     atom   36 type  1   force =     0.22530151    1.40126050   62.75330526
     atom   37 type  1   force =     0.17084817   -3.25107580   90.72253041
     atom   38 type  1   force =    -0.14447469   -0.27093914   92.99328049
     atom   39 type  1   force =    -2.28039120   -0.37399040   93.75063313
     atom   40 type  1   force =    -3.19897897    0.26835859   94.91019126
     atom   41 type  3   force =     2.79177940    0.71782720  -16.32355254
     atom   42 type  3   force =     2.79187409    0.71784773   16.32358221
     atom   43 type  3   force =     2.68132897   -0.05597434  -16.07631454
     atom   44 type  3   force =     2.68140047   -0.05597665   16.07631888
     atom   45 type  3   force =     0.00644964    2.30006195  -17.18777770
     atom   46 type  3   force =     0.00644625    2.30031568   17.18783214
     The local contribution  to forces
     atom    1 type  1   force =     0.59183788    0.05874245   93.61815229
     atom    2 type  1   force =     1.49695134   -0.19250826   94.40696170
     atom    3 type  1   force =    -0.16476431    1.66687869   90.85285420
     atom    4 type  1   force =     0.14437521    0.23851128   91.89250218
     atom    5 type  2   force =     3.03417507    0.80599906  170.46847819
     atom    6 type  2   force =    -3.11503457    0.89907124  169.24034145
     atom    7 type  1   force =     0.08587524    1.20152986   62.68530391
     atom    8 type  1   force =    -0.07833547    1.04593011   61.55353448
     atom    9 type  2   force =    -1.08475313   -1.17533651  164.28301791
     atom   10 type  2   force =     1.17696581   -0.67586903  169.51056526
     atom   11 type  1   force =     0.17485673   -1.51797948   64.52853508
     atom   12 type  1   force =    -0.23979293   -1.39857021   62.72243321
     atom   13 type  1   force =    -0.00594043    0.17253041   37.85339354
     atom   14 type  1   force =     0.12584524    0.24118573   36.71131144
     atom   15 type  1   force =    -0.00808299   -0.05889356   24.65054563
     atom   16 type  1   force =     0.17222321   -0.13239357   26.20393296
     atom   17 type  2   force =     0.11574868   -0.10929150   -0.00582597
     atom   18 type  2   force =    -0.19568026   -0.09905390   -0.00581892
     atom   19 type  1   force =     0.32389814   -0.54852394   -0.00244044
     atom   20 type  1   force =    -0.31877024   -1.00288090   -0.00242423
     atom   21 type  2   force =    -0.16612813    0.03654159   -0.00599867
     atom   22 type  2   force =    -0.22887970    0.12964233   -0.00597200
     atom   23 type  1   force =     0.27029978    0.58208581   -0.00244370
     atom   24 type  1   force =    -0.24441814    0.94498957   -0.00242684
     atom   25 type  1   force =    -0.00809491   -0.05889375  -24.65229378
     atom   26 type  1   force =     0.17222383   -0.13239657  -26.20564408
     atom   27 type  1   force =    -0.00593811    0.17253624  -37.85515087
     atom   28 type  1   force =     0.12584696    0.24118692  -36.71303651
     atom   29 type  2   force =     3.03419754    0.80600648 -170.47451530
     atom   30 type  2   force =    -3.11505510    0.89908469 -169.24639807
     atom   31 type  1   force =     0.08588097    1.20152597  -62.68773415
     atom   32 type  1   force =    -0.07833953    1.04593180  -61.55596709
     atom   33 type  2   force =    -1.08477015   -1.17536794 -164.28881999
     atom   34 type  2   force =     1.17697557   -0.67587172 -169.51633500
     atom   35 type  1   force =     0.17487140   -1.51797675  -64.53096852
     atom   36 type  1   force =    -0.23980574   -1.39857440  -62.72486967
     atom   37 type  1   force =    -0.16476588    1.66699927  -90.85659549
     atom   38 type  1   force =     0.14437156    0.23850446  -91.89643842
     atom   39 type  1   force =     0.59186078    0.05872877  -93.61972804
     atom   40 type  1   force =     1.49698019   -0.19251066  -94.40849536
     atom   41 type  3   force =    -2.70991113   -0.69432618   16.29149152
     atom   42 type  3   force =    -2.70991113   -0.69432618  -16.29149152
     atom   43 type  3   force =    -2.60011055    0.05712565   16.04930993
     atom   44 type  3   force =    -2.60011055    0.05712565  -16.04930993
     atom   45 type  3   force =    -0.01149629   -2.16129664   17.09520174
     atom   46 type  3   force =    -0.01149629   -2.16129664  -17.09520174
     The core correction contribution to forces
     atom    1 type  1   force =    -0.01687737   -0.00358998   -0.00179632
     atom    2 type  1   force =    -0.01717402    0.00063929   -0.00477336
     atom    3 type  1   force =     0.00008122   -0.01427885   -0.00065254
     atom    4 type  1   force =    -0.00002312   -0.00023331   -0.01022352
     atom    5 type  2   force =     0.00000000    0.00000000    0.00000000
     atom    6 type  2   force =     0.00000000    0.00000000    0.00000000
     atom    7 type  1   force =    -0.00003237    0.00022323   -0.00011022
     atom    8 type  1   force =     0.00032873   -0.00027563    0.00022444
     atom    9 type  2   force =     0.00000000    0.00000000    0.00000000
     atom   10 type  2   force =     0.00000000    0.00000000    0.00000000
     atom   11 type  1   force =     0.00027915    0.00006995   -0.00063596
     atom   12 type  1   force =    -0.00000323    0.00065370   -0.00028846
     atom   13 type  1   force =    -0.00015393    0.00004425   -0.00026450
     atom   14 type  1   force =     0.00001094   -0.00061631    0.00045947
     atom   15 type  1   force =     0.00002961    0.00017827   -0.00013707
     atom   16 type  1   force =    -0.00019201    0.00009898   -0.00183156
     atom   17 type  2   force =     0.00000000    0.00000000    0.00000000
     atom   18 type  2   force =     0.00000000    0.00000000    0.00000000
     atom   19 type  1   force =    -0.00039776    0.00093153   -0.00000207
     atom   20 type  1   force =     0.00035471    0.00018524   -0.00000199
     atom   21 type  2   force =     0.00000000    0.00000000    0.00000000
     atom   22 type  2   force =     0.00000000    0.00000000    0.00000000
     atom   23 type  1   force =    -0.00024033   -0.00093108   -0.00000204
     atom   24 type  1   force =     0.00019061   -0.00023714   -0.00000196
     atom   25 type  1   force =     0.00002959    0.00017836    0.00013493
     atom   26 type  1   force =    -0.00019203    0.00009897    0.00182949
     atom   27 type  1   force =    -0.00015393    0.00004427    0.00026229
     atom   28 type  1   force =     0.00001093   -0.00061638   -0.00046182
     atom   29 type  2   force =     0.00000000    0.00000000    0.00000000
     atom   30 type  2   force =     0.00000000    0.00000000    0.00000000
     atom   31 type  1   force =    -0.00003228    0.00022328    0.00010838
     atom   32 type  1   force =     0.00032868   -0.00027563   -0.00022633
     atom   33 type  2   force =     0.00000000    0.00000000    0.00000000
     atom   34 type  2   force =     0.00000000    0.00000000    0.00000000
     atom   35 type  1   force =     0.00027929    0.00006996    0.00063400
     atom   36 type  1   force =    -0.00000330    0.00065373    0.00028656
     atom   37 type  1   force =     0.00008122   -0.01428081    0.00064853
     atom   38 type  1   force =    -0.00002311   -0.00023347    0.01021897
     atom   39 type  1   force =    -0.01687809   -0.00359015    0.00179375
     atom   40 type  1   force =    -0.01717482    0.00063932    0.00477121
     atom   41 type  3   force =     0.00000000    0.00000000    0.00000000
     atom   42 type  3   force =     0.00000000    0.00000000    0.00000000
     atom   43 type  3   force =     0.00000000    0.00000000    0.00000000
     atom   44 type  3   force =     0.00000000    0.00000000    0.00000000
     atom   45 type  3   force =     0.00000000    0.00000000    0.00000000
     atom   46 type  3   force =     0.00000000    0.00000000    0.00000000
     The Hubbard contrib.    to forces
     atom    1 type  1   force =     0.00000000    0.00000000    0.00000000
     atom    2 type  1   force =     0.00000000    0.00000000    0.00000000
     atom    3 type  1   force =     0.00000000    0.00000000    0.00000000
     atom    4 type  1   force =     0.00000000    0.00000000    0.00000000
     atom    5 type  2   force =     0.00000000    0.00000000    0.00000000
     atom    6 type  2   force =     0.00000000    0.00000000    0.00000000
     atom    7 type  1   force =     0.00000000    0.00000000    0.00000000
     atom    8 type  1   force =     0.00000000    0.00000000    0.00000000
     atom    9 type  2   force =     0.00000000    0.00000000    0.00000000
     atom   10 type  2   force =     0.00000000    0.00000000    0.00000000
     atom   11 type  1   force =     0.00000000    0.00000000    0.00000000
     atom   12 type  1   force =     0.00000000    0.00000000    0.00000000
     atom   13 type  1   force =     0.00000000    0.00000000    0.00000000
     atom   14 type  1   force =     0.00000000    0.00000000    0.00000000
     atom   15 type  1   force =     0.00000000    0.00000000    0.00000000
     atom   16 type  1   force =     0.00000000    0.00000000    0.00000000
     atom   17 type  2   force =     0.00000000    0.00000000    0.00000000
     atom   18 type  2   force =     0.00000000    0.00000000    0.00000000
     atom   19 type  1   force =     0.00000000    0.00000000    0.00000000
     atom   20 type  1   force =     0.00000000    0.00000000    0.00000000
     atom   21 type  2   force =     0.00000000    0.00000000    0.00000000
     atom   22 type  2   force =     0.00000000    0.00000000    0.00000000
     atom   23 type  1   force =     0.00000000    0.00000000    0.00000000
     atom   24 type  1   force =     0.00000000    0.00000000    0.00000000
     atom   25 type  1   force =     0.00000000    0.00000000    0.00000000
     atom   26 type  1   force =     0.00000000    0.00000000    0.00000000
     atom   27 type  1   force =     0.00000000    0.00000000    0.00000000
     atom   28 type  1   force =     0.00000000    0.00000000    0.00000000
     atom   29 type  2   force =     0.00000000    0.00000000    0.00000000
     atom   30 type  2   force =     0.00000000    0.00000000    0.00000000
     atom   31 type  1   force =     0.00000000    0.00000000    0.00000000
     atom   32 type  1   force =     0.00000000    0.00000000    0.00000000
     atom   33 type  2   force =     0.00000000    0.00000000    0.00000000
     atom   34 type  2   force =     0.00000000    0.00000000    0.00000000
     atom   35 type  1   force =     0.00000000    0.00000000    0.00000000
     atom   36 type  1   force =     0.00000000    0.00000000    0.00000000
     atom   37 type  1   force =     0.00000000    0.00000000    0.00000000
     atom   38 type  1   force =     0.00000000    0.00000000    0.00000000
     atom   39 type  1   force =     0.00000000    0.00000000    0.00000000
     atom   40 type  1   force =     0.00000000    0.00000000    0.00000000
     atom   41 type  3   force =     0.00000000    0.00000000    0.00000000
     atom   42 type  3   force =     0.00000000    0.00000000    0.00000000
     atom   43 type  3   force =     0.00000000    0.00000000    0.00000000
     atom   44 type  3   force =     0.00000000    0.00000000    0.00000000
     atom   45 type  3   force =     0.00000000    0.00000000    0.00000000
     atom   46 type  3   force =     0.00000000    0.00000000    0.00000000
     The SCF correction term to forces
     atom    1 type  1   force =     0.00000959   -0.00000830    0.00000182
     atom    2 type  1   force =     0.00000460   -0.00000326    0.00000001
     atom    3 type  1   force =    -0.00000244    0.00001573   -0.00000417
     atom    4 type  1   force =     0.00000525    0.00000480    0.00000220
     atom    5 type  2   force =    -0.00001581    0.00001359    0.00001329
     atom    6 type  2   force =     0.00001545    0.00001502    0.00001727
     atom    7 type  1   force =    -0.00000878   -0.00000081    0.00000582
     atom    8 type  1   force =     0.00000762   -0.00000735    0.00000775
     atom    9 type  2   force =     0.00000124   -0.00001497    0.00001844
     atom   10 type  2   force =     0.00000189   -0.00001030    0.00003210
     atom   11 type  1   force =    -0.00000670   -0.00000354    0.00000882
     atom   12 type  1   force =     0.00000540    0.00000282    0.00001153
     atom   13 type  1   force =    -0.00000483    0.00000300    0.00002152
     atom   14 type  1   force =     0.00000480    0.00000227    0.00000861
     atom   15 type  1   force =    -0.00000222   -0.00000161    0.00001044
     atom   16 type  1   force =     0.00000235   -0.00000147    0.00001146
     atom   17 type  2   force =    -0.00000435    0.00000314    0.00001150
     atom   18 type  2   force =     0.00000298    0.00000282    0.00001163
     atom   19 type  1   force =    -0.00001476   -0.00000359    0.00000411
     atom   20 type  1   force =     0.00001504   -0.00000163    0.00000403
     atom   21 type  2   force =    -0.00001159   -0.00000250    0.00001187
     atom   22 type  2   force =     0.00001193   -0.00000257    0.00001166
     atom   23 type  1   force =    -0.00001480    0.00000429    0.00000418
     atom   24 type  1   force =     0.00001498    0.00000236    0.00000410
     atom   25 type  1   force =    -0.00000213   -0.00000154   -0.00000637
     atom   26 type  1   force =     0.00000226   -0.00000138   -0.00000789
     atom   27 type  1   force =    -0.00000468    0.00000289   -0.00002171
     atom   28 type  1   force =     0.00000466    0.00000215   -0.00000880
     atom   29 type  2   force =    -0.00001579    0.00001321   -0.00002512
     atom   30 type  2   force =     0.00001540    0.00001459   -0.00002903
     atom   31 type  1   force =    -0.00000866   -0.00000118   -0.00001015
     atom   32 type  1   force =     0.00000749   -0.00000773   -0.00001208
     atom   33 type  2   force =     0.00000176   -0.00001458   -0.00003110
     atom   34 type  2   force =     0.00000138   -0.00000990   -0.00004500
     atom   35 type  1   force =    -0.00000657   -0.00000306   -0.00001318
     atom   36 type  1   force =     0.00000528    0.00000331   -0.00001587
     atom   37 type  1   force =    -0.00000231    0.00001555    0.00000141
     atom   38 type  1   force =     0.00000509    0.00000470   -0.00000557
     atom   39 type  1   force =     0.00000965   -0.00000829   -0.00000286
     atom   40 type  1   force =     0.00000444   -0.00000320   -0.00000105
     atom   41 type  3   force =    -0.00000069   -0.00000097    0.00000067
     atom   42 type  3   force =    -0.00000062   -0.00000095   -0.00000077
     atom   43 type  3   force =     0.00000126   -0.00000056   -0.00000002
     atom   44 type  3   force =     0.00000129   -0.00000055   -0.00000010
     atom   45 type  3   force =    -0.00000006   -0.00000003    0.00000098
     atom   46 type  3   force =    -0.00000005   -0.00000004   -0.00000121

     Total force =     0.159610     Total SCF correction =     0.000122

     BFGS Geometry Optimization
     Energy error            =      0.0E+00 Ry
     Gradient error          =      5.5E-02 Ry/Bohr

     number of scf cycles    =   1
     number of bfgs steps    =   0

     energy             new  =   -3435.3474584345 Ry

     new trust radius        =       0.0688505445 bohr
     new conv_thr            =       0.0000000010 Ry


ATOMIC_POSITIONS (crystal)
O            -0.0206844826        0.4767501454        0.2705957358
O             0.5078412763        0.4985080529        0.2683376258
O            -0.0021764741        0.0023483252        0.2979634262
O             0.4995125644       -0.0004412573        0.3092150650
Ru            0.2523886454        0.0007993272        0.3555793290
Ru            0.7448715587        0.0009304214        0.3562678065
O             0.2490278911        0.3110132409        0.3569523849
O             0.7492695691        0.3076946850        0.3582328088
Ru           -0.0021662768        0.5001373017        0.3586131612
Ru            0.5005511555        0.5003552220        0.3548230931
O             0.2456819072        0.6896644806        0.3545645914
O             0.7520359218        0.6929276070        0.3570788633
O             0.0011680206        0.0000797800        0.4120294812
O             0.4974638182       -0.0030541445        0.4122387397
O             0.0004842682        0.5006886178        0.4460491028
O             0.5002942172        0.5021396464        0.4419273162
Ru            0.0010408230       -0.0001975632        0.5000010000
Ru            0.4980438657        0.0001716472        0.5000010000
O             0.2508187652        0.1939131380        0.5000010000
O             0.7487269398        0.1901025606        0.5000010000
Ru            0.2546027746        0.5003251816        0.5000010000
Ru            0.7441151312        0.5002899940        0.5000010000
O             0.2500387475        0.8067906267        0.5000010000
O             0.7497571696        0.8101675850        0.5000010000
O             0.0004842682        0.5006886178        0.5539518972
O             0.5002942172        0.5021396464        0.5580736838
O             0.0011680206        0.0000797800        0.5879715188
O             0.4974638182       -0.0030541445        0.5877622603
Ru            0.2523886454        0.0007993272        0.6444216710
Ru            0.7448715587        0.0009304214        0.6437331935
O             0.2490278911        0.3110132409        0.6430486151
O             0.7492695691        0.3076946850        0.6417681912
Ru           -0.0021662768        0.5001373017        0.6413878388
Ru            0.5005511555        0.5003552220        0.6451779069
O             0.2456819072        0.6896644806        0.6454364086
O             0.7520359218        0.6929276070        0.6429221367
O            -0.0021764741        0.0023483252        0.7020385738
O             0.4995125644       -0.0004412573        0.6907869350
O            -0.0206844826        0.4767501454        0.7294052642
O             0.5078412763        0.4985080529        0.7316633742
H             0.1121145060        0.5069060628        0.2507786966
H             0.1121145060        0.5069060628        0.7492213034
H             0.6531218979        0.4932162028        0.2542293110
H             0.6531218979        0.4932162028        0.7457706890
H            -0.0041020921        0.1327716978        0.2699770185
H            -0.0041020921        0.1327716978        0.7300229815



     Writing config-only to output data dir /storage/home/mgm6007/ixd4/Maria/Strain0_Files/RuO2-110-0-012/RuO2-110-0-012.save/
     NEW-OLD atomic charge density approx. for the potential

     Check: negative core charge=   -0.000001

     negative rho (up, down):  1.417E-04 0.000E+00

     add environment contribution to local potential
     Polarization accuracy = 3.7E-12, # of iterations =  45

     total cpu time spent up to now is    13701.7 secs

     per-process dynamical memory:   224.1 Mb

     Self-consistent Calculation

     iteration #  1     ecut=    50.00 Ry     beta= 0.70
     Davidson diagonalization with overlap
     ethr =  1.00E-06,  avg # of iterations =  7.0

     negative rho (up, down):  1.694E-04 0.000E+00

     add environment contribution to local potential
     Polarization accuracy = 5.0E-12, # of iterations =  46

     total cpu time spent up to now is    14008.7 secs

     total energy              =   -3435.35207951 Ry
     estimated scf accuracy    <       0.01022551 Ry
     electrostatic embedding   =      -0.02986415 Ry
     cavitation energy         =       0.02133908 Ry
     PV energy                 =      -0.08223871 Ry
     correction to one-el term =     190.70054812 Ry

     iteration #  2     ecut=    50.00 Ry     beta= 0.70
     Davidson diagonalization with overlap
     ethr =  2.79E-06,  avg # of iterations =  2.0

     negative rho (up, down):  1.622E-04 0.000E+00

     add environment contribution to local potential
     Polarization accuracy = 5.4E-12, # of iterations =  45

     total cpu time spent up to now is    14356.3 secs

     total energy              =   -3435.35263821 Ry
     estimated scf accuracy    <       0.00743167 Ry
     electrostatic embedding   =      -0.03002431 Ry
     cavitation energy         =       0.02134845 Ry
     PV energy                 =      -0.08222853 Ry
     correction to one-el term =     190.75587728 Ry

     iteration #  3     ecut=    50.00 Ry     beta= 0.70
     Davidson diagonalization with overlap
     ethr =  2.03E-06,  avg # of iterations =  1.0

     negative rho (up, down):  1.569E-04 0.000E+00

     add environment contribution to local potential
     Polarization accuracy = 5.2E-12, # of iterations =  46

     total cpu time spent up to now is    14695.2 secs

     total energy              =   -3435.35298890 Ry
     estimated scf accuracy    <       0.00346408 Ry
     electrostatic embedding   =      -0.03010827 Ry
     cavitation energy         =       0.02134275 Ry
     PV energy                 =      -0.08223470 Ry
     correction to one-el term =     190.73295942 Ry

     iteration #  4     ecut=    50.00 Ry     beta= 0.70
     Davidson diagonalization with overlap
     ethr =  9.46E-07,  avg # of iterations =  2.0

     negative rho (up, down):  1.473E-04 0.000E+00

     add environment contribution to local potential
     Polarization accuracy = 5.3E-12, # of iterations =  46

     total cpu time spent up to now is    15011.3 secs

     total energy              =   -3435.35313798 Ry
     estimated scf accuracy    <       0.00027051 Ry
     electrostatic embedding   =      -0.03028063 Ry
     cavitation energy         =       0.02134329 Ry
     PV energy                 =      -0.08223596 Ry
     correction to one-el term =     190.72133651 Ry

     iteration #  5     ecut=    50.00 Ry     beta= 0.70
     Davidson diagonalization with overlap
     ethr =  7.39E-08,  avg # of iterations =  2.0

     negative rho (up, down):  1.411E-04 0.000E+00

     add environment contribution to local potential
     Polarization accuracy = 5.6E-12, # of iterations =  45

     total cpu time spent up to now is    15322.8 secs

     total energy              =   -3435.35317260 Ry
     estimated scf accuracy    <       0.00011024 Ry
     electrostatic embedding   =      -0.03048181 Ry
     cavitation energy         =       0.02134179 Ry
     PV energy                 =      -0.08223747 Ry
     correction to one-el term =     190.68726175 Ry

     iteration #  6     ecut=    50.00 Ry     beta= 0.70
     Davidson diagonalization with overlap
     ethr =  3.01E-08,  avg # of iterations =  1.0

     negative rho (up, down):  1.338E-04 0.000E+00

     add environment contribution to local potential
     Polarization accuracy = 5.5E-12, # of iterations =  45

     total cpu time spent up to now is    15572.3 secs

     total energy              =   -3435.35317952 Ry
     estimated scf accuracy    <       0.00001525 Ry
     electrostatic embedding   =      -0.03055607 Ry
     cavitation energy         =       0.02134159 Ry
     PV energy                 =      -0.08223768 Ry
     correction to one-el term =     190.66964677 Ry

     iteration #  7     ecut=    50.00 Ry     beta= 0.70
     Davidson diagonalization with overlap
     ethr =  4.17E-09,  avg # of iterations =  2.0

     negative rho (up, down):  1.233E-04 0.000E+00

     add environment contribution to local potential
     Polarization accuracy = 4.9E-12, # of iterations =  46

     total cpu time spent up to now is    15894.7 secs

     total energy              =   -3435.35318204 Ry
     estimated scf accuracy    <       0.00000774 Ry
     electrostatic embedding   =      -0.03064597 Ry
     cavitation energy         =       0.02134191 Ry
     PV energy                 =      -0.08223714 Ry
     correction to one-el term =     190.64586049 Ry

     iteration #  8     ecut=    50.00 Ry     beta= 0.70
     Davidson diagonalization with overlap
     ethr =  2.11E-09,  avg # of iterations =  2.0

     negative rho (up, down):  1.208E-04 0.000E+00

     add environment contribution to local potential
     Polarization accuracy = 5.6E-12, # of iterations =  45

     total cpu time spent up to now is    16189.3 secs

     total energy              =   -3435.35318543 Ry
     estimated scf accuracy    <       0.00000371 Ry
     electrostatic embedding   =      -0.03079156 Ry
     cavitation energy         =       0.02134285 Ry
     PV energy                 =      -0.08223562 Ry
     correction to one-el term =     190.60507726 Ry

     iteration #  9     ecut=    50.00 Ry     beta= 0.70
     Davidson diagonalization with overlap
     ethr =  1.01E-09,  avg # of iterations =  2.0

     negative rho (up, down):  1.207E-04 0.000E+00

     add environment contribution to local potential
     Polarization accuracy = 4.1E-12, # of iterations =  46

     total cpu time spent up to now is    16541.3 secs

     total energy              =   -3435.35318611 Ry
     estimated scf accuracy    <       0.00000091 Ry
     electrostatic embedding   =      -0.03084260 Ry
     cavitation energy         =       0.02134339 Ry
     PV energy                 =      -0.08223480 Ry
     correction to one-el term =     190.59097354 Ry

     iteration # 10     ecut=    50.00 Ry     beta= 0.70
     Davidson diagonalization with overlap
     ethr =  2.48E-10,  avg # of iterations =  2.0

     negative rho (up, down):  1.227E-04 0.000E+00

     add environment contribution to local potential
     Polarization accuracy = 3.5E-12, # of iterations =  45

     total cpu time spent up to now is    16890.5 secs

     total energy              =   -3435.35318634 Ry
     estimated scf accuracy    <       0.00000021 Ry
     electrostatic embedding   =      -0.03087755 Ry
     cavitation energy         =       0.02134399 Ry
     PV energy                 =      -0.08223395 Ry
     correction to one-el term =     190.58167115 Ry

     iteration # 11     ecut=    50.00 Ry     beta= 0.70
     Davidson diagonalization with overlap
     ethr =  5.81E-11,  avg # of iterations =  2.0

     negative rho (up, down):  1.260E-04 0.000E+00

     add environment contribution to local potential
     Polarization accuracy = 9.9E-12, # of iterations =  45

     total cpu time spent up to now is    17221.0 secs

     total energy              =   -3435.35318639 Ry
     estimated scf accuracy    <       0.00000012 Ry
     electrostatic embedding   =      -0.03090564 Ry
     cavitation energy         =       0.02134458 Ry
     PV energy                 =      -0.08223316 Ry
     correction to one-el term =     190.57416108 Ry

     iteration # 12     ecut=    50.00 Ry     beta= 0.70
     Davidson diagonalization with overlap
     ethr =  3.30E-11,  avg # of iterations =  2.0

     negative rho (up, down):  1.297E-04 0.000E+00

     add environment contribution to local potential
     Polarization accuracy = 3.2E-12, # of iterations =  45

     total cpu time spent up to now is    17547.7 secs

     total energy              =   -3435.35318638 Ry
     estimated scf accuracy    <       0.00000007 Ry
     electrostatic embedding   =      -0.03091378 Ry
     cavitation energy         =       0.02134491 Ry
     PV energy                 =      -0.08223272 Ry
     correction to one-el term =     190.57230250 Ry

     iteration # 13     ecut=    50.00 Ry     beta= 0.70
     Davidson diagonalization with overlap
     ethr =  1.89E-11,  avg # of iterations =  2.0

     negative rho (up, down):  1.317E-04 0.000E+00

     add environment contribution to local potential
[...]
     atom    2 type  1   force =     0.00000000    0.00000000    0.00000000
     atom    3 type  1   force =     0.00000000    0.00000000    0.00000000
     atom    4 type  1   force =     0.00000000    0.00000000    0.00000000
     atom    5 type  2   force =     0.00000000    0.00000000    0.00000000
     atom    6 type  2   force =     0.00000000    0.00000000    0.00000000
     atom    7 type  1   force =     0.00000000    0.00000000    0.00000000
     atom    8 type  1   force =     0.00000000    0.00000000    0.00000000
     atom    9 type  2   force =     0.00000000    0.00000000    0.00000000
     atom   10 type  2   force =     0.00000000    0.00000000    0.00000000
     atom   11 type  1   force =     0.00000000    0.00000000    0.00000000
     atom   12 type  1   force =     0.00000000    0.00000000    0.00000000
     atom   13 type  1   force =     0.00000000    0.00000000    0.00000000
     atom   14 type  1   force =     0.00000000    0.00000000    0.00000000
     atom   15 type  1   force =     0.00000000    0.00000000    0.00000000
     atom   16 type  1   force =     0.00000000    0.00000000    0.00000000
     atom   17 type  2   force =     0.00000000    0.00000000    0.00000000
     atom   18 type  2   force =     0.00000000    0.00000000    0.00000000
     atom   19 type  1   force =     0.00000000    0.00000000    0.00000000
     atom   20 type  1   force =     0.00000000    0.00000000    0.00000000
     atom   21 type  2   force =     0.00000000    0.00000000    0.00000000
     atom   22 type  2   force =     0.00000000    0.00000000    0.00000000
     atom   23 type  1   force =     0.00000000    0.00000000    0.00000000
     atom   24 type  1   force =     0.00000000    0.00000000    0.00000000
     atom   25 type  1   force =     0.00000000    0.00000000    0.00000000
     atom   26 type  1   force =     0.00000000    0.00000000    0.00000000
     atom   27 type  1   force =     0.00000000    0.00000000    0.00000000
     atom   28 type  1   force =     0.00000000    0.00000000    0.00000000
     atom   29 type  2   force =     0.00000000    0.00000000    0.00000000
     atom   30 type  2   force =     0.00000000    0.00000000    0.00000000
     atom   31 type  1   force =     0.00000000    0.00000000    0.00000000
     atom   32 type  1   force =     0.00000000    0.00000000    0.00000000
     atom   33 type  2   force =     0.00000000    0.00000000    0.00000000
     atom   34 type  2   force =     0.00000000    0.00000000    0.00000000
     atom   35 type  1   force =     0.00000000    0.00000000    0.00000000
     atom   36 type  1   force =     0.00000000    0.00000000    0.00000000
     atom   37 type  1   force =     0.00000000    0.00000000    0.00000000
     atom   38 type  1   force =     0.00000000    0.00000000    0.00000000
     atom   39 type  1   force =     0.00000000    0.00000000    0.00000000
     atom   40 type  1   force =     0.00000000    0.00000000    0.00000000
     atom   41 type  3   force =     0.00000000    0.00000000    0.00000000
     atom   42 type  3   force =     0.00000000    0.00000000    0.00000000
     atom   43 type  3   force =     0.00000000    0.00000000    0.00000000
     atom   44 type  3   force =     0.00000000    0.00000000    0.00000000
     atom   45 type  3   force =     0.00000000    0.00000000    0.00000000
     atom   46 type  3   force =     0.00000000    0.00000000    0.00000000
     The SCF correction term to forces
     atom    1 type  1   force =     0.00000274   -0.00000003    0.00000170
     atom    2 type  1   force =    -0.00000245   -0.00000076    0.00000069
     atom    3 type  1   force =     0.00000124   -0.00000012    0.00000117
     atom    4 type  1   force =    -0.00000104    0.00000019    0.00000122
     atom    5 type  2   force =    -0.00000161   -0.00000014    0.00000194
     atom    6 type  2   force =     0.00000167    0.00000020    0.00000486
     atom    7 type  1   force =    -0.00000103    0.00000098    0.00000069
     atom    8 type  1   force =     0.00000093    0.00000026    0.00000178
     atom    9 type  2   force =     0.00000284   -0.00000013    0.00000324
     atom   10 type  2   force =    -0.00000280   -0.00000047    0.00000363
     atom   11 type  1   force =    -0.00000103   -0.00000092    0.00000070
     atom   12 type  1   force =     0.00000109   -0.00000024    0.00000190
     atom   13 type  1   force =    -0.00000001   -0.00000003    0.00000121
     atom   14 type  1   force =    -0.00000007   -0.00000007    0.00000042
     atom   15 type  1   force =     0.00000055   -0.00000007    0.00000058
     atom   16 type  1   force =    -0.00000061   -0.00000006    0.00000126
     atom   17 type  2   force =     0.00000076   -0.00000023   -0.00000008
     atom   18 type  2   force =    -0.00000058   -0.00000018   -0.00000008
     atom   19 type  1   force =    -0.00000129    0.00000127   -0.00000003
     atom   20 type  1   force =     0.00000121    0.00000103   -0.00000003
     atom   21 type  2   force =    -0.00000144   -0.00000016   -0.00000008
     atom   22 type  2   force =     0.00000156   -0.00000030   -0.00000007
     atom   23 type  1   force =    -0.00000121   -0.00000105   -0.00000003
     atom   24 type  1   force =     0.00000116   -0.00000074   -0.00000003
     atom   25 type  1   force =     0.00000055   -0.00000007   -0.00000063
     atom   26 type  1   force =    -0.00000061   -0.00000006   -0.00000131
     atom   27 type  1   force =    -0.00000002   -0.00000003   -0.00000126
     atom   28 type  1   force =    -0.00000007   -0.00000007   -0.00000047
     atom   29 type  2   force =    -0.00000161   -0.00000014   -0.00000199
     atom   30 type  2   force =     0.00000167    0.00000020   -0.00000491
     atom   31 type  1   force =    -0.00000103    0.00000098   -0.00000071
     atom   32 type  1   force =     0.00000093    0.00000026   -0.00000180
     atom   33 type  2   force =     0.00000283   -0.00000013   -0.00000330
     atom   34 type  2   force =    -0.00000279   -0.00000047   -0.00000368
     atom   35 type  1   force =    -0.00000103   -0.00000092   -0.00000071
     atom   36 type  1   force =     0.00000109   -0.00000024   -0.00000192
     atom   37 type  1   force =     0.00000124   -0.00000012   -0.00000117
     atom   38 type  1   force =    -0.00000103    0.00000019   -0.00000122
     atom   39 type  1   force =     0.00000274   -0.00000003   -0.00000169
     atom   40 type  1   force =    -0.00000245   -0.00000076   -0.00000068
     atom   41 type  3   force =     0.00000010   -0.00000005    0.00000030
     atom   42 type  3   force =     0.00000010   -0.00000005   -0.00000030
     atom   43 type  3   force =    -0.00000005   -0.00000007    0.00000006
     atom   44 type  3   force =    -0.00000005   -0.00000007   -0.00000005
     atom   45 type  3   force =     0.00000020    0.00000009    0.00000018
     atom   46 type  3   force =     0.00000020    0.00000009   -0.00000018

     Total force =     0.002101     Total SCF correction =     0.000016
     Energy error            =      9.1E-06 Ry
     Gradient error          =      4.9E-04 Ry/Bohr

     number of scf cycles    =  40
     number of bfgs steps    =  39

     energy             old  =   -3435.3618277713 Ry
     energy             new  =   -3435.3618369110 Ry

     CASE: energy            _new < energy            _old

     new trust radius        =       0.0062693114 bohr
     new conv_thr            =            1.0E-11 Ry


ATOMIC_POSITIONS (crystal)
O            -0.0133476053        0.4482860837        0.2699780641
O             0.4982652928        0.4955559263        0.2683279982
O            -0.0015786627        0.0156521316        0.2970344478
O             0.4993768962        0.0021574394        0.3087722817
Ru            0.2526529609        0.0016362249        0.3553235055
Ru            0.7453738311        0.0020923594        0.3555929360
O             0.2512526443        0.3120255269        0.3588384514
O             0.7475998466        0.3114592643        0.3588328680
Ru           -0.0015398066        0.4999888217        0.3582763831
Ru            0.4995766976        0.5018080675        0.3549711846
O             0.2442846336        0.6902258794        0.3534764997
O             0.7539630736        0.6908491700        0.3550731604
O            -0.0002380602        0.0004563554        0.4116129591
O             0.4988907819       -0.0039788259        0.4119062551
O             0.0026477201        0.5026758226        0.4460281687
O             0.5015837488        0.5066654149        0.4427743268
Ru            0.0001011434        0.0014324697        0.5000010000
Ru            0.4999744408        0.0014415270        0.5000010000
O             0.2507287020        0.1922594572        0.5000010000
O             0.7491482237        0.1918279729        0.5000010000
Ru            0.2549566860        0.5020244614        0.5000010000
Ru            0.7469953180        0.5020549437        0.5000010000
O             0.2495523273        0.8118925117        0.5000010000
O             0.7506830722        0.8118422718        0.5000010000
O             0.0026477201        0.5026758226        0.5539728313
O             0.5015837488        0.5066654149        0.5572266732
O            -0.0002380602        0.0004563554        0.5883880409
O             0.4988907819       -0.0039788259        0.5880947449
Ru            0.2526529609        0.0016362249        0.6446774945
Ru            0.7453738311        0.0020923594        0.6444080640
O             0.2512526443        0.3120255269        0.6411625486
O             0.7475998466        0.3114592643        0.6411681320
Ru           -0.0015398066        0.4999888217        0.6417246169
Ru            0.4995766976        0.5018080675        0.6450298154
O             0.2442846336        0.6902258794        0.6465245003
O             0.7539630736        0.6908491700        0.6449278396
O            -0.0015786627        0.0156521316        0.7029675522
O             0.4993768962        0.0021574394        0.6912297183
O            -0.0133476053        0.4482860837        0.7300229359
O             0.4982652928        0.4955559263        0.7316730018
H             0.1184159963        0.4854046136        0.2501506885
H             0.1184159963        0.4854046136        0.7498493115
H             0.6407813139        0.4853738001        0.2520702353
H             0.6407813139        0.4853738001        0.7479297647
H            -0.0037612594        0.1584951164        0.2760069204
H            -0.0037612594        0.1584951164        0.7239930796



     Writing config-only to output data dir /storage/home/mgm6007/ixd4/Maria/Strain0_Files/RuO2-110-0-012/RuO2-110-0-012.save/
     NEW-OLD atomic charge density approx. for the potential

     Check: negative core charge=   -0.000001

     negative rho (up, down):  1.451E-04 0.000E+00

     add environment contribution to local potential
     Polarization accuracy = 3.7E-12, # of iterations =  45

     total cpu time spent up to now is   205237.8 secs

     per-process dynamical memory:   224.1 Mb

     Self-consistent Calculation

     iteration #  1     ecut=    50.00 Ry     beta= 0.70
     Davidson diagonalization with overlap
     ethr =  1.00E-06,  avg # of iterations =  2.0

     Threshold (ethr) on eigenvalues was too large:
     Diagonalizing with lowered threshold

     Davidson diagonalization with overlap
     ethr =  2.28E-09,  avg # of iterations =  3.5

     negative rho (up, down):  1.482E-04 0.000E+00

     add environment contribution to local potential
     Polarization accuracy = 3.5E-12, # of iterations =  45

     total cpu time spent up to now is   205425.0 secs

     total energy              =   -3435.36184270 Ry
     estimated scf accuracy    <       0.00000911 Ry
     electrostatic embedding   =      -0.02425401 Ry
     cavitation energy         =       0.02141537 Ry
     PV energy                 =      -0.08217251 Ry
     correction to one-el term =     192.82047233 Ry

     iteration #  2     ecut=    50.00 Ry     beta= 0.70
     Davidson diagonalization with overlap
     ethr =  2.49E-09,  avg # of iterations =  2.0

     negative rho (up, down):  1.496E-04 0.000E+00

     add environment contribution to local potential
     Polarization accuracy = 3.2E-12, # of iterations =  46

     total cpu time spent up to now is   205589.3 secs

     total energy              =   -3435.36184306 Ry
     estimated scf accuracy    <       0.00001050 Ry
     electrostatic embedding   =      -0.02424957 Ry
     cavitation energy         =       0.02141661 Ry
     PV energy                 =      -0.08217195 Ry
     correction to one-el term =     192.81723166 Ry

     iteration #  3     ecut=    50.00 Ry     beta= 0.70
     Davidson diagonalization with overlap
     ethr =  2.49E-09,  avg # of iterations =  1.0

     negative rho (up, down):  1.526E-04 0.000E+00

     add environment contribution to local potential
     Polarization accuracy = 3.3E-12, # of iterations =  45

     total cpu time spent up to now is   205757.1 secs

     total energy              =   -3435.36184368 Ry
     estimated scf accuracy    <       0.00000250 Ry
     electrostatic embedding   =      -0.02424810 Ry
     cavitation energy         =       0.02141712 Ry
     PV energy                 =      -0.08217166 Ry
     correction to one-el term =     192.81734144 Ry

     iteration #  4     ecut=    50.00 Ry     beta= 0.70
     Davidson diagonalization with overlap
     ethr =  6.83E-10,  avg # of iterations =  2.0

     negative rho (up, down):  1.534E-04 0.000E+00

     add environment contribution to local potential
     Polarization accuracy = 5.4E-12, # of iterations =  45

     total cpu time spent up to now is   205940.0 secs

     total energy              =   -3435.36184384 Ry
     estimated scf accuracy    <       0.00000081 Ry
     electrostatic embedding   =      -0.02424218 Ry
     cavitation energy         =       0.02141798 Ry
     PV energy                 =      -0.08217136 Ry
     correction to one-el term =     192.81643467 Ry

     iteration #  5     ecut=    50.00 Ry     beta= 0.70
     Davidson diagonalization with overlap
     ethr =  2.20E-10,  avg # of iterations =  1.0

     negative rho (up, down):  1.539E-04 0.000E+00

     add environment contribution to local potential
     Polarization accuracy = 3.0E-12, # of iterations =  46

     total cpu time spent up to now is   206113.4 secs

     total energy              =   -3435.36184383 Ry
     estimated scf accuracy    <       0.00000014 Ry
     electrostatic embedding   =      -0.02423914 Ry
     cavitation energy         =       0.02141816 Ry
     PV energy                 =      -0.08217140 Ry
     correction to one-el term =     192.81624158 Ry

     iteration #  6     ecut=    50.00 Ry     beta= 0.70
     Davidson diagonalization with overlap
     ethr =  3.86E-11,  avg # of iterations =  2.0

     negative rho (up, down):  1.540E-04 0.000E+00

     add environment contribution to local potential
     Polarization accuracy = 3.3E-12, # of iterations =  45

     total cpu time spent up to now is   206304.5 secs

     total energy              =   -3435.36184379 Ry
     estimated scf accuracy    <       0.00000005 Ry
     electrostatic embedding   =      -0.02423610 Ry
     cavitation energy         =       0.02141827 Ry
     PV energy                 =      -0.08217149 Ry
     correction to one-el term =     192.81654562 Ry

     iteration #  7     ecut=    50.00 Ry     beta= 0.70
     Davidson diagonalization with overlap
     ethr =  1.36E-11,  avg # of iterations =  2.0

     negative rho (up, down):  1.535E-04 0.000E+00

     add environment contribution to local potential
     Polarization accuracy = 9.3E-12, # of iterations =  45

     total cpu time spent up to now is   206491.1 secs

     total energy              =   -3435.36184374 Ry
     estimated scf accuracy    <       0.00000003 Ry
     electrostatic embedding   =      -0.02423129 Ry
     cavitation energy         =       0.02141836 Ry
     PV energy                 =      -0.08217166 Ry
     correction to one-el term =     192.81709141 Ry

     iteration #  8     ecut=    50.00 Ry     beta= 0.70
     Davidson diagonalization with overlap
     ethr =  8.36E-12,  avg # of iterations =  2.0

     negative rho (up, down):  1.526E-04 0.000E+00

     add environment contribution to local potential
     Polarization accuracy = 3.3E-12, # of iterations =  45

     total cpu time spent up to now is   206655.1 secs

     total energy              =   -3435.36184370 Ry
     estimated scf accuracy    <       0.00000001 Ry
     electrostatic embedding   =      -0.02422878 Ry
     cavitation energy         =       0.02141839 Ry
     PV energy                 =      -0.08217178 Ry
     correction to one-el term =     192.81732544 Ry

     iteration #  9     ecut=    50.00 Ry     beta= 0.70
     Davidson diagonalization with overlap
     ethr =  3.98E-12,  avg # of iterations =  2.0

     negative rho (up, down):  1.512E-04 0.000E+00

     add environment contribution to local potential
     Polarization accuracy = 3.9E-12, # of iterations =  45

     total cpu time spent up to now is   206826.3 secs

     total energy              =   -3435.36184368 Ry
     estimated scf accuracy    <          3.5E-09 Ry
     electrostatic embedding   =      -0.02422654 Ry
     cavitation energy         =       0.02141839 Ry
     PV energy                 =      -0.08217189 Ry
     correction to one-el term =     192.81752451 Ry

     iteration # 10     ecut=    50.00 Ry     beta= 0.70
     Davidson diagonalization with overlap
     ethr =  9.58E-13,  avg # of iterations =  2.0

     negative rho (up, down):  1.503E-04 0.000E+00

     add environment contribution to local potential
     Polarization accuracy = 3.7E-12, # of iterations =  45

     total cpu time spent up to now is   207004.6 secs

     total energy              =   -3435.36184367 Ry
     estimated scf accuracy    <          2.3E-09 Ry
     electrostatic embedding   =      -0.02422555 Ry
     cavitation energy         =       0.02141836 Ry
     PV energy                 =      -0.08217196 Ry
     correction to one-el term =     192.81758539 Ry

     iteration # 11     ecut=    50.00 Ry     beta= 0.70
     Davidson diagonalization with overlap
     ethr =  6.33E-13,  avg # of iterations =  1.0

     negative rho (up, down):  1.488E-04 0.000E+00

     add environment contribution to local potential
     Polarization accuracy = 3.2E-12, # of iterations =  46

     total cpu time spent up to now is   207169.5 secs

     total energy              =   -3435.36184367 Ry
     estimated scf accuracy    <          2.2E-09 Ry
     electrostatic embedding   =      -0.02422520 Ry
     cavitation energy         =       0.02141834 Ry
     PV energy                 =      -0.08217199 Ry
     correction to one-el term =     192.81756903 Ry

     iteration # 12     ecut=    50.00 Ry     beta= 0.70
     Davidson diagonalization with overlap
     ethr =  5.89E-13,  avg # of iterations =  1.0

     negative rho (up, down):  1.475E-04 0.000E+00

     add environment contribution to local potential
     Polarization accuracy = 5.6E-12, # of iterations =  45

     total cpu time spent up to now is   207328.4 secs

     total energy              =   -3435.36184367 Ry
     estimated scf accuracy    <          6.4E-10 Ry
     electrostatic embedding   =      -0.02422485 Ry
     cavitation energy         =       0.02141832 Ry
     PV energy                 =      -0.08217204 Ry
     correction to one-el term =     192.81751899 Ry

     iteration # 13     ecut=    50.00 Ry     beta= 0.70
     Davidson diagonalization with overlap
     ethr =  1.74E-13,  avg # of iterations =  1.0

     negative rho (up, down):  1.466E-04 0.000E+00

     add environment contribution to local potential
     Polarization accuracy = 9.6E-12, # of iterations =  45
