
     Program PWSCF v.7.2 starts on 27Jul2023 at 11:59:40 
        Git branch: heads/qe-7.2
        Last git commit: b4c5e8deeb7d1863e7553a87b45f8d22c21926a5
        Last git commit date: Mon Mar 27 16:12:09 2023 +0000
        Last git commit subject: Merge branch 'merge_fix_hubbard' into 'develop'

     This program is part of the open-source Quantum ESPRESSO suite
     for quantum simulation of materials; please cite
         "P. Giannozzi et al., J. Phys.:Condens. Matter 21 395502 (2009);
         "P. Giannozzi et al., J. Phys.:Condens. Matter 29 465901 (2017);
         "P. Giannozzi et al., J. Chem. Phys. 152 154105 (2020);
          URL http://www.quantum-espresso.org", 
     in publications or presentations arising from this work. More details at
     http://www.quantum-espresso.org/quote

     Parallel version (MPI), running on    20 processors

     MPI processes distributed on     1 nodes
     102755 MiB available memory on the printing compute node when the environment starts
 
     Reading input from RuO2-110-0-234.in

     Current dimensions of program PWSCF are:
     Max number of different atomic species (ntypx) = 10
     Max number of k-points (npk) =  40000
     Max angular momentum in pseudopotentials (lmaxx) =  4
 
     Reading input from environ.in:
     * Environ restarting
     * setting up water environment
     * using electronic solvent mode
     * setting boundary derivatives method to SCCS default
     

     File /storage/home/mgm6007/ixd4/Maria/Strain2_Files/RuO2-110-0-234/RuO2-110-0-234.update deleted, as requested

     File /storage/home/mgm6007/ixd4/Maria/Strain2_Files/RuO2-110-0-234/RuO2-110-0-234.bfgs deleted, as requested
     file O.pbe-n-kjpaw_psl.0.1.UPF: wavefunction(s)  2P renormalized
     Message from routine setup:
     using ibrav=0 with symmetry is DISCOURAGED, use correct ibrav instead
 
     R & G space division:  proc/nbgrp/npool/nimage =      20
     Subspace diagonalization in iterative solution of the eigenvalue problem:
     one sub-group per band group will be used
     scalapack distributed-memory algorithm (size of sub-group:  2*  2 procs)

 
     Parallelization info
     --------------------
     sticks:   dense  smooth     PW     G-vecs:    dense   smooth      PW
     Min         279     111     29                55537    14039    1893
     Max         280     112     30                55546    14052    1904
     Sum        5595    2237    595              1110843   280917   37967
 
     Using Slab Decomposition
 


     bravais-lattice index     =            0
     lattice parameter (alat)  =      12.2467  a.u.
     unit-cell volume          =    5883.2137 (a.u.)^3
     number of atoms/cell      =           46
     number of atomic types    =            3
     number of electrons       =       366.00
     number of Kohn-Sham states=          220
     kinetic-energy cutoff     =      50.0000  Ry
     charge density cutoff     =     500.0000  Ry
     scf convergence threshold =      1.0E-09
     mixing beta               =       0.7000
     number of iterations used =            8  local-TF  mixing
     energy convergence thresh.=      1.0E-04
     force convergence thresh. =      1.0E-04
     Exchange-correlation= PBE
                           (   1   4   3   4   0   0   0)
     nstep                     =          200


     ================================================================================
 
                                  Environ Setup Summary

     ================================================================================
 
     Please cite

          O. Andreussi, I. Dabo and N. Marzari, J. Chem. Phys. 136, 064102 (2012)

     in publications or presentations arising from this work.

     ================================================================================
 
     Parameters
     ==========

     compensation onset threshold      =               0.1000E+00
     static permittivity               =                    78.30
     surface tension in input (dyn/cm) =                    47.90
     surface tension in internal units =               0.6153E-04
     external pressure in input (GPa)  =                    -0.36
     external pressure in inter. units =              -0.2447E-04

     Solvent Boundary
     ================

     solvent mode                      =               electronic
     derivatives method                =                    chain
     numerical core for derivatives    =                      fft
     switching function adopted        =                     SCCS
     density limit for vacuum region   =               0.5000E-02
     density limit for bulk solvent    =               0.1000E-03

     Electrostatic Setup
     ===================

     electrostatic problem to solve    =              generalized
     numerical solver adopted          =                       cg
     type of auxiliary density adopted =                     none
     numerical core for poisson        =                      fft
     type of pbc corrections           =                parabolic
     numerical core for corrections    =                      1da

     ================================================================================
 

     celldm(1)=  12.246684  celldm(2)=   0.000000  celldm(3)=   0.000000
     celldm(4)=   0.000000  celldm(5)=   0.000000  celldm(6)=   0.000000

     crystal axes: (cart. coord. in units of alat)
               a(1) = (   1.000000   0.000000   0.000000 )  
               a(2) = (   0.000000   0.937861   0.000000 )  
               a(3) = (   0.000000   0.000000   3.415235 )  

     reciprocal axes: (cart. coord. in units 2 pi/alat)
               b(1) = (  1.000000  0.000000  0.000000 )  
               b(2) = (  0.000000  1.066256  0.000000 )  
               b(3) = (  0.000000  0.000000  0.292806 )  


     PseudoPot. # 1 for O  read from file:
     /gpfs/group/ixd4/default/Simon/pseudopotentials/materialscloud/SSSP_1.3.0_PBE_efficiency/O.pbe-n-kjpaw_psl.0.1.UPF
     MD5 check sum: 0234752ac141de4415c5fc33072bef88
     Pseudo is Projector augmented-wave + core cor, Zval =  6.0
     Generated using "atomic" code by A. Dal Corso  v.5.0.99 svn rev. 10869
     Shape of augmentation charge: BESSEL
     Using radial grid of 1095 points,  4 beta functions with: 
                l(1) =   0
                l(2) =   0
                l(3) =   1
                l(4) =   1
     Q(r) pseudized with 0 coefficients 


     PseudoPot. # 2 for Ru read from file:
     /gpfs/group/ixd4/default/Simon/pseudopotentials/materialscloud/SSSP_1.3.0_PBE_efficiency/Ru_ONCV_PBE-1.0.oncvpsp.upf
     MD5 check sum: be037bb81c227cfb9b1461a9f099f4bd
     Pseudo is Norm-conserving, Zval = 16.0
     Generated using ONCVPSP code by D. R. Hamann
     Using radial grid of 1458 points,  6 beta functions with: 
                l(1) =   0
                l(2) =   0
                l(3) =   1
                l(4) =   1
                l(5) =   2
                l(6) =   2

     PseudoPot. # 3 for H  read from file:
     /gpfs/group/ixd4/default/Simon/pseudopotentials/materialscloud/SSSP_1.3.0_PBE_efficiency/H.pbe-rrkjus_psl.1.0.0.UPF
     MD5 check sum: f52b6d4d1c606e5624b1dc7b2218f220
     Pseudo is Ultrasoft, Zval =  1.0
     Generated using "atomic" code by A. Dal Corso  v.5.1
     Using radial grid of  929 points,  2 beta functions with: 
                l(1) =   0
                l(2) =   0
     Q(r) pseudized with 0 coefficients 


     atomic species   valence    mass     pseudopotential
        O              6.00    15.99940     O ( 1.00)
        Ru            16.00   101.07000     Ru( 1.00)
        H              1.00     1.00794     H ( 1.00)

      4 Sym. Ops. (no inversion) found



   Cartesian axes

     site n.     atom                  positions (alat units)
         1           O   tau(   1) = (   0.0000000   0.3943625   0.9343116  )
         2           O   tau(   2) = (   0.5000000   0.4140765   0.9344352  )
         3           O   tau(   3) = (   0.0000000   0.0159391   0.9998765  )
         4           O   tau(   4) = (   0.5000000   0.0091145   1.0301016  )
         5           Ru  tau(   5) = (   0.2540078  -0.0043832   1.2302102  )
         6           Ru  tau(   6) = (   0.7459922  -0.0043832   1.2302102  )
         7           O   tau(   7) = (   0.2526104   0.2861841   1.2474945  )
         8           O   tau(   8) = (   0.7473896   0.2861841   1.2474945  )
         9           Ru  tau(   9) = (   0.0000000   0.4613663   1.2037921  )
        10           Ru  tau(  10) = (   0.5000000   0.4630024   1.2011514  )
        11           O   tau(  11) = (   0.2470524   0.6439027   1.1969973  )
        12           O   tau(  12) = (   0.7529476   0.6439027   1.1969973  )
        13           O   tau(  13) = (   0.0000000  -0.0092589   1.4061509  )
        14           O   tau(  14) = (   0.5000000  -0.0100235   1.4087548  )
        15           O   tau(  15) = (   0.0000000   0.4796428   1.5153908  )
        16           O   tau(  16) = (   0.5000000   0.4796632   1.5206769  )
        17           Ru  tau(  17) = (   0.0000000   0.0042126   1.7076210  )
        18           Ru  tau(  18) = (   0.5000000   0.0044517   1.7076210  )
        19           O   tau(  19) = (   0.2487960   0.1814819   1.7076210  )
        20           O   tau(  20) = (   0.7512040   0.1814819   1.7076210  )
        21           Ru  tau(  21) = (   0.2488007   0.4737367   1.7076210  )
        22           Ru  tau(  22) = (   0.7511993   0.4737367   1.7076210  )
        23           O   tau(  23) = (   0.2498020   0.7665791   1.7076210  )
        24           O   tau(  24) = (   0.7501980   0.7665791   1.7076210  )
        25           O   tau(  25) = (   0.0000000   0.4796428   1.8998478  )
        26           O   tau(  26) = (   0.5000000   0.4796632   1.8945618  )
        27           O   tau(  27) = (   0.0000000  -0.0092589   2.0090878  )
        28           O   tau(  28) = (   0.5000000  -0.0100235   2.0064838  )
        29           Ru  tau(  29) = (   0.2540078  -0.0043832   2.1850285  )
        30           Ru  tau(  30) = (   0.7459922  -0.0043832   2.1850285  )
        31           O   tau(  31) = (   0.2526104   0.2861841   2.1677441  )
        32           O   tau(  32) = (   0.7473896   0.2861841   2.1677441  )
        33           Ru  tau(  33) = (   0.0000000   0.4613663   2.2114465  )
        34           Ru  tau(  34) = (   0.5000000   0.4630024   2.2140872  )
        35           O   tau(  35) = (   0.2470524   0.6439027   2.2182413  )
        36           O   tau(  36) = (   0.7529476   0.6439027   2.2182413  )
        37           O   tau(  37) = (   0.0000000   0.0159391   2.4153655  )
        38           O   tau(  38) = (   0.5000000   0.0091145   2.3851405  )
        39           O   tau(  39) = (   0.0000000   0.3943625   2.4809270  )
        40           O   tau(  40) = (   0.5000000   0.4140765   2.4808034  )
        41           H   tau(  41) = (   0.0000000   0.1676304   0.9396419  )
        42           H   tau(  42) = (   0.0000000   0.1676304   2.4755933  )
        43           H   tau(  43) = (   0.5000000   0.1421689   0.9529041  )
        44           H   tau(  44) = (   0.5000000   0.1421689   2.4623311  )
        45           H   tau(  45) = (   0.0000000   0.8558552   0.8831130  )
        46           H   tau(  46) = (   0.0000000   0.8558552   2.5321222  )

     number of k points=     1  Marzari-Vanderbilt smearing, width (Ry)=  0.0300
                       cart. coord. in units 2pi/alat
        k(    1) = (   0.2500000   0.2665641   0.0000000), wk =   2.0000000

     Dense  grid:  1110843 G-vectors     FFT dimensions: (  90,  81, 300)

     Smooth grid:   280917 G-vectors     FFT dimensions: (  60,  54, 192)

     Estimated max dynamical RAM per process >     170.24 MB

     Estimated total dynamical RAM >       3.33 GB

     Check: negative core charge=   -0.000001

     Initial potential from superposition of free atoms

     starting charge     365.9933, renormalised to     366.0000

     add environment contribution to local potential
     Polarization accuracy = 3.0E-12, # of iterations =  24

     negative rho (up, down):  3.642E-05 0.000E+00
     Starting wfcs are  238 randomized atomic wfcs
     Checking if some PAW data can be deallocated... 

     total cpu time spent up to now is      522.9 secs

     per-process dynamical memory:   139.1 Mb

     Self-consistent Calculation

     iteration #  1     ecut=    50.00 Ry     beta= 0.70
     Davidson diagonalization with overlap
     ethr =  1.00E-02,  avg # of iterations =  2.0

     total cpu time spent up to now is      664.0 secs

     total energy              =   -3432.70290671 Ry
     estimated scf accuracy    <       9.89302854 Ry
     electrostatic embedding   =      -0.00167896 Ry
     cavitation energy         =       0.01951198 Ry
     PV energy                 =      -0.08419655 Ry
     correction to one-el term =     218.73232749 Ry

     iteration #  2     ecut=    50.00 Ry     beta= 0.70
     Davidson diagonalization with overlap
     ethr =  2.70E-03,  avg # of iterations =  2.0

     total cpu time spent up to now is      802.1 secs

     total energy              =   -3434.82398407 Ry
     estimated scf accuracy    <       2.94784506 Ry
     electrostatic embedding   =      -0.00252964 Ry
     cavitation energy         =       0.01955729 Ry
     PV energy                 =      -0.08457029 Ry
     correction to one-el term =     218.73466962 Ry

     iteration #  3     ecut=    50.00 Ry     beta= 0.70
     Davidson diagonalization with overlap
     ethr =  8.05E-04,  avg # of iterations =  1.0

     total cpu time spent up to now is      928.6 secs

     total energy              =   -3435.08069792 Ry
     estimated scf accuracy    <       0.38156012 Ry
     electrostatic embedding   =      -0.00295129 Ry
     cavitation energy         =       0.01960601 Ry
     PV energy                 =      -0.08487157 Ry
     correction to one-el term =     218.73583780 Ry

     iteration #  4     ecut=    50.00 Ry     beta= 0.70
     Davidson diagonalization with overlap
     ethr =  1.04E-04,  avg # of iterations =  2.0

     total cpu time spent up to now is     1066.1 secs

     total energy              =   -3435.11420537 Ry
     estimated scf accuracy    <       0.73434984 Ry
     electrostatic embedding   =      -0.00310453 Ry
     cavitation energy         =       0.01982360 Ry
     PV energy                 =      -0.08440777 Ry
     correction to one-el term =     218.73588634 Ry

     iteration #  5     ecut=    50.00 Ry     beta= 0.70
     Davidson diagonalization with overlap
     ethr =  1.04E-04,  avg # of iterations =  1.0

     total cpu time spent up to now is     1214.4 secs

     total energy              =   -3435.10243837 Ry
     estimated scf accuracy    <       0.30490097 Ry
     electrostatic embedding   =      -0.00326326 Ry
     cavitation energy         =       0.02001846 Ry
     PV energy                 =      -0.08407393 Ry
     correction to one-el term =     218.73606956 Ry

     iteration #  6     ecut=    50.00 Ry     beta= 0.70
     Davidson diagonalization with overlap
     ethr =  8.33E-05,  avg # of iterations =  1.0

     total cpu time spent up to now is     1365.8 secs

     total energy              =   -3435.09572858 Ry
     estimated scf accuracy    <       0.20105465 Ry
     electrostatic embedding   =      -0.00342675 Ry
     cavitation energy         =       0.02056771 Ry
     PV energy                 =      -0.08292390 Ry
     correction to one-el term =     218.73590897 Ry

     iteration #  7     ecut=    50.00 Ry     beta= 0.70
     Davidson diagonalization with overlap
     ethr =  5.49E-05,  avg # of iterations =  2.0

     total cpu time spent up to now is     1511.6 secs

     total energy              =   -3435.09095870 Ry
     estimated scf accuracy    <       0.11010149 Ry
     electrostatic embedding   =      -0.00337257 Ry
     cavitation energy         =       0.02084958 Ry
     PV energy                 =      -0.08216236 Ry
     correction to one-el term =     218.73544213 Ry

     iteration #  8     ecut=    50.00 Ry     beta= 0.70
     Davidson diagonalization with overlap
     ethr =  3.01E-05,  avg # of iterations = 11.0

     add environment contribution to local potential
     Polarization accuracy = 7.6E-12, # of iterations =  44

     total cpu time spent up to now is     1637.9 secs

     total energy              =   -3435.08759934 Ry
     estimated scf accuracy    <       0.03447535 Ry
     electrostatic embedding   =      -0.00316773 Ry
     cavitation energy         =       0.02126534 Ry
     PV energy                 =      -0.08110706 Ry
     correction to one-el term =     218.73442753 Ry

     iteration #  9     ecut=    50.00 Ry     beta= 0.70
     Davidson diagonalization with overlap
     ethr =  9.42E-06,  avg # of iterations = 10.0

     total cpu time spent up to now is     1763.7 secs

     total energy              =   -3435.15547786 Ry
     estimated scf accuracy    <       0.33088754 Ry
     electrostatic embedding   =      -0.06032907 Ry
     cavitation energy         =       0.02147695 Ry
     PV energy                 =      -0.08052314 Ry
     correction to one-el term =     181.55228530 Ry

     iteration # 10     ecut=    50.00 Ry     beta= 0.70
     Davidson diagonalization with overlap
     ethr =  9.42E-06,  avg # of iterations =  1.0

     total cpu time spent up to now is     1908.3 secs

     total energy              =   -3435.14018273 Ry
     estimated scf accuracy    <       0.27742148 Ry
     electrostatic embedding   =      -0.06046720 Ry
     cavitation energy         =       0.02147495 Ry
     PV energy                 =      -0.08051382 Ry
     correction to one-el term =     181.55270053 Ry

     iteration # 11     ecut=    50.00 Ry     beta= 0.70
     Davidson diagonalization with overlap
     ethr =  9.42E-06,  avg # of iterations =  2.0

     add environment contribution to local potential
     Polarization accuracy = 5.0E-12, # of iterations =  44

     total cpu time spent up to now is     2055.1 secs

     total energy              =   -3435.13661873 Ry
     estimated scf accuracy    <       0.04513547 Ry
     electrostatic embedding   =      -0.06223565 Ry
     cavitation energy         =       0.02140699 Ry
     PV energy                 =      -0.08043427 Ry
     correction to one-el term =     181.55808338 Ry

     iteration # 12     ecut=    50.00 Ry     beta= 0.70
     Davidson diagonalization with overlap
     ethr =  9.42E-06,  avg # of iterations =  2.0

     negative rho (up, down):  1.546E-04 0.000E+00

     add environment contribution to local potential
     Polarization accuracy = 3.1E-12, # of iterations =  46

     total cpu time spent up to now is     2212.7 secs

     total energy              =   -3435.14499915 Ry
     estimated scf accuracy    <       0.02233726 Ry
     electrostatic embedding   =      -0.07197432 Ry
     cavitation energy         =       0.02126650 Ry
     PV energy                 =      -0.08049092 Ry
     correction to one-el term =     182.94574646 Ry

     iteration # 13     ecut=    50.00 Ry     beta= 0.70
     Davidson diagonalization with overlap
     ethr =  6.10E-06,  avg # of iterations =  6.0

     negative rho (up, down):  6.346E-04 0.000E+00

     add environment contribution to local potential
     Polarization accuracy = 7.3E-12, # of iterations =  45

     total cpu time spent up to now is     2360.0 secs

     total energy              =   -3435.14707777 Ry
     estimated scf accuracy    <       0.00425816 Ry
     electrostatic embedding   =      -0.07900983 Ry
     cavitation energy         =       0.02123139 Ry
     PV energy                 =      -0.08043678 Ry
     correction to one-el term =     183.18934677 Ry

     iteration # 14     ecut=    50.00 Ry     beta= 0.70
     Davidson diagonalization with overlap
     ethr =  1.16E-06,  avg # of iterations =  6.0

     negative rho (up, down):  1.890E-04 0.000E+00

     add environment contribution to local potential
     Polarization accuracy = 3.5E-12, # of iterations =  44

     total cpu time spent up to now is     2495.7 secs

     total energy              =   -3435.14925210 Ry
     estimated scf accuracy    <       0.00614934 Ry
     electrostatic embedding   =      -0.08863231 Ry
     cavitation energy         =       0.02112839 Ry
     PV energy                 =      -0.08049512 Ry
     correction to one-el term =     183.85711105 Ry

     iteration # 15     ecut=    50.00 Ry     beta= 0.70
     Davidson diagonalization with overlap
     ethr =  1.16E-06,  avg # of iterations =  6.0

     negative rho (up, down):  7.650E-06 0.000E+00

     add environment contribution to local potential
     Polarization accuracy = 2.7E-12, # of iterations =  44

     total cpu time spent up to now is     2652.5 secs

     total energy              =   -3435.14937864 Ry
     estimated scf accuracy    <       0.00798345 Ry
     electrostatic embedding   =      -0.09450586 Ry
     cavitation energy         =       0.02103511 Ry
     PV energy                 =      -0.08063850 Ry
     correction to one-el term =     184.59706590 Ry

     iteration # 16     ecut=    50.00 Ry     beta= 0.70
     Davidson diagonalization with overlap
     ethr =  1.16E-06,  avg # of iterations =  2.0

     add environment contribution to local potential
     Polarization accuracy = 8.3E-12, # of iterations =  44

     total cpu time spent up to now is     2795.0 secs

     total energy              =   -3435.14925713 Ry
     estimated scf accuracy    <       0.00401636 Ry
     electrostatic embedding   =      -0.09425061 Ry
     cavitation energy         =       0.02103267 Ry
     PV energy                 =      -0.08067006 Ry
     correction to one-el term =     184.72552964 Ry

     iteration # 17     ecut=    50.00 Ry     beta= 0.70
     Davidson diagonalization with overlap
     ethr =  1.10E-06,  avg # of iterations =  8.0

     negative rho (up, down):  1.695E-08 0.000E+00

     add environment contribution to local potential
     Polarization accuracy = 7.0E-12, # of iterations =  43

     total cpu time spent up to now is     2954.3 secs

     total energy              =   -3435.14949827 Ry
     estimated scf accuracy    <       0.00046867 Ry
     electrostatic embedding   =      -0.09344671 Ry
     cavitation energy         =       0.02100589 Ry
     PV energy                 =      -0.08076237 Ry
     correction to one-el term =     185.18914842 Ry

     iteration # 18     ecut=    50.00 Ry     beta= 0.70
     Davidson diagonalization with overlap
     ethr =  1.28E-07,  avg # of iterations =  6.0

     negative rho (up, down):  2.708E-04 0.000E+00

     add environment contribution to local potential
     Polarization accuracy = 6.5E-12, # of iterations =  44

     total cpu time spent up to now is     3102.2 secs

     total energy              =   -3435.14955186 Ry
     estimated scf accuracy    <       0.00015685 Ry
     electrostatic embedding   =      -0.09283749 Ry
     cavitation energy         =       0.02099604 Ry
     PV energy                 =      -0.08078382 Ry
     correction to one-el term =     185.37699704 Ry

     iteration # 19     ecut=    50.00 Ry     beta= 0.70
     Davidson diagonalization with overlap
     ethr =  4.29E-08,  avg # of iterations =  7.0

     negative rho (up, down):  2.913E-04 0.000E+00

     add environment contribution to local potential
     Polarization accuracy = 6.8E-12, # of iterations =  43

     total cpu time spent up to now is     3253.2 secs

     total energy              =   -3435.14957534 Ry
     estimated scf accuracy    <       0.00007030 Ry
     electrostatic embedding   =      -0.09284726 Ry
     cavitation energy         =       0.02098499 Ry
     PV energy                 =      -0.08079542 Ry
     correction to one-el term =     185.57287208 Ry

     iteration # 20     ecut=    50.00 Ry     beta= 0.70
     Davidson diagonalization with overlap
     ethr =  1.92E-08,  avg # of iterations =  2.0

     negative rho (up, down):  1.270E-04 0.000E+00

     add environment contribution to local potential
     Polarization accuracy = 4.2E-12, # of iterations =  49

     total cpu time spent up to now is     3385.1 secs

     total energy              =   -3435.14957798 Ry
     estimated scf accuracy    <       0.00004780 Ry
     electrostatic embedding   =      -0.09239001 Ry
     cavitation energy         =       0.02098449 Ry
     PV energy                 =      -0.08078858 Ry
     correction to one-el term =     185.63128473 Ry

     iteration # 21     ecut=    50.00 Ry     beta= 0.70
     Davidson diagonalization with overlap
     ethr =  1.31E-08,  avg # of iterations =  3.0

     negative rho (up, down):  1.639E-04 0.000E+00

     add environment contribution to local potential
     Polarization accuracy = 6.1E-12, # of iterations =  44

     total cpu time spent up to now is     3505.0 secs

     total energy              =   -3435.14957971 Ry
     estimated scf accuracy    <       0.00001769 Ry
     electrostatic embedding   =      -0.09136651 Ry
     cavitation energy         =       0.02098662 Ry
     PV energy                 =      -0.08077568 Ry
     correction to one-el term =     185.70873600 Ry

     iteration # 22     ecut=    50.00 Ry     beta= 0.70
     Davidson diagonalization with overlap
     ethr =  4.83E-09,  avg # of iterations =  2.0

     negative rho (up, down):  5.239E-05 0.000E+00

     add environment contribution to local potential
     Polarization accuracy = 6.6E-12, # of iterations =  43

     total cpu time spent up to now is     3645.6 secs

     total energy              =   -3435.14957718 Ry
     estimated scf accuracy    <       0.00000649 Ry
     electrostatic embedding   =      -0.09105157 Ry
     cavitation energy         =       0.02098804 Ry
     PV energy                 =      -0.08076657 Ry
     correction to one-el term =     185.73532832 Ry

     iteration # 23     ecut=    50.00 Ry     beta= 0.70
     Davidson diagonalization with overlap
     ethr =  1.77E-09,  avg # of iterations =  3.0

     negative rho (up, down):  2.514E-05 0.000E+00

     add environment contribution to local potential
     Polarization accuracy = 6.3E-12, # of iterations =  44

     total cpu time spent up to now is     3790.7 secs

     total energy              =   -3435.14957516 Ry
     estimated scf accuracy    <       0.00000496 Ry
     electrostatic embedding   =      -0.09087064 Ry
     cavitation energy         =       0.02099060 Ry
     PV energy                 =      -0.08076170 Ry
     correction to one-el term =     185.72149026 Ry

     iteration # 24     ecut=    50.00 Ry     beta= 0.70
     Davidson diagonalization with overlap
     ethr =  1.36E-09,  avg # of iterations =  3.0

     negative rho (up, down):  6.821E-05 0.000E+00

     add environment contribution to local potential
     Polarization accuracy = 6.8E-12, # of iterations =  43

     total cpu time spent up to now is     3948.0 secs

     total energy              =   -3435.14957420 Ry
     estimated scf accuracy    <       0.00000296 Ry
     electrostatic embedding   =      -0.09065671 Ry
     cavitation energy         =       0.02099220 Ry
     PV energy                 =      -0.08075820 Ry
     correction to one-el term =     185.72285311 Ry

     iteration # 25     ecut=    50.00 Ry     beta= 0.70
     Davidson diagonalization with overlap
     ethr =  8.10E-10,  avg # of iterations =  3.0

     negative rho (up, down):  1.420E-04 0.000E+00

     add environment contribution to local potential
     Polarization accuracy = 6.5E-12, # of iterations =  44

     total cpu time spent up to now is     4087.8 secs

     total energy              =   -3435.14957214 Ry
     estimated scf accuracy    <       0.00000061 Ry
     electrostatic embedding   =      -0.09047126 Ry
     cavitation energy         =       0.02099290 Ry
     PV energy                 =      -0.08075541 Ry
     correction to one-el term =     185.74120088 Ry

     iteration # 26     ecut=    50.00 Ry     beta= 0.70
     Davidson diagonalization with overlap
     ethr =  1.67E-10,  avg # of iterations =  3.0

     negative rho (up, down):  1.633E-04 0.000E+00

     add environment contribution to local potential
     Polarization accuracy = 6.5E-12, # of iterations =  43

     total cpu time spent up to now is     4225.7 secs

     total energy              =   -3435.14957106 Ry
     estimated scf accuracy    <       0.00000018 Ry
     electrostatic embedding   =      -0.09036854 Ry
     cavitation energy         =       0.02099268 Ry
     PV energy                 =      -0.08075575 Ry
     correction to one-el term =     185.75640630 Ry

     iteration # 27     ecut=    50.00 Ry     beta= 0.70
     Davidson diagonalization with overlap
     ethr =  4.88E-11,  avg # of iterations =  4.0

     negative rho (up, down):  1.703E-04 0.000E+00

     add environment contribution to local potential
     Polarization accuracy = 6.7E-12, # of iterations =  43

     total cpu time spent up to now is     4358.1 secs

     total energy              =   -3435.14957053 Ry
     estimated scf accuracy    <       0.00000011 Ry
     electrostatic embedding   =      -0.09028101 Ry
     cavitation energy         =       0.02099228 Ry
     PV energy                 =      -0.08075690 Ry
     correction to one-el term =     185.76479530 Ry

     iteration # 28     ecut=    50.00 Ry     beta= 0.70
     Davidson diagonalization with overlap
     ethr =  3.04E-11,  avg # of iterations =  3.0

     negative rho (up, down):  1.706E-04 0.000E+00

     add environment contribution to local potential
     Polarization accuracy = 6.7E-12, # of iterations =  43

     total cpu time spent up to now is     4536.2 secs

     total energy              =   -3435.14957070 Ry
     estimated scf accuracy    <       0.00000010 Ry
     electrostatic embedding   =      -0.09025420 Ry
     cavitation energy         =       0.02099194 Ry
     PV energy                 =      -0.08075765 Ry
     correction to one-el term =     185.76846357 Ry

     iteration # 29     ecut=    50.00 Ry     beta= 0.70
     Davidson diagonalization with overlap
     ethr =  2.77E-11,  avg # of iterations =  3.0

     negative rho (up, down):  1.429E-04 0.000E+00

     add environment contribution to local potential
     Polarization accuracy = 7.3E-12, # of iterations =  43

     total cpu time spent up to now is     4682.6 secs

     total energy              =   -3435.14957091 Ry
     estimated scf accuracy    <       0.00000008 Ry
     electrostatic embedding   =      -0.09020593 Ry
     cavitation energy         =       0.02099163 Ry
     PV energy                 =      -0.08075840 Ry
     correction to one-el term =     185.77266106 Ry

     iteration # 30     ecut=    50.00 Ry     beta= 0.70
     Davidson diagonalization with overlap
     ethr =  2.07E-11,  avg # of iterations =  4.0

     negative rho (up, down):  1.439E-04 0.000E+00

     add environment contribution to local potential
     Polarization accuracy = 6.7E-12, # of iterations =  43

     total cpu time spent up to now is     4815.2 secs

     total energy              =   -3435.14957082 Ry
     estimated scf accuracy    <       0.00000005 Ry
     electrostatic embedding   =      -0.09009060 Ry
     cavitation energy         =       0.02099163 Ry
     PV energy                 =      -0.08075812 Ry
     correction to one-el term =     185.77860830 Ry

     iteration # 31     ecut=    50.00 Ry     beta= 0.70
     Davidson diagonalization with overlap
     ethr =  1.48E-11,  avg # of iterations =  2.0

     negative rho (up, down):  1.440E-04 0.000E+00

     add environment contribution to local potential
     Polarization accuracy = 6.7E-12, # of iterations =  43

     total cpu time spent up to now is     4959.7 secs

     total energy              =   -3435.14957110 Ry
     estimated scf accuracy    <       0.00000005 Ry
     electrostatic embedding   =      -0.09007277 Ry
     cavitation energy         =       0.02099151 Ry
     PV energy                 =      -0.08075837 Ry
     correction to one-el term =     185.78080684 Ry

     iteration # 32     ecut=    50.00 Ry     beta= 0.70
     Davidson diagonalization with overlap
     ethr =  1.33E-11,  avg # of iterations =  3.0

     negative rho (up, down):  1.526E-04 0.000E+00

     add environment contribution to local potential
     Polarization accuracy = 6.6E-12, # of iterations =  43

     total cpu time spent up to now is     5104.4 secs

     total energy              =   -3435.14957158 Ry
     estimated scf accuracy    <       0.00000004 Ry
     electrostatic embedding   =      -0.09005243 Ry
     cavitation energy         =       0.02099163 Ry
     PV energy                 =      -0.08075804 Ry
     correction to one-el term =     185.78230060 Ry

     iteration # 33     ecut=    50.00 Ry     beta= 0.70
     Davidson diagonalization with overlap
     ethr =  1.20E-11,  avg # of iterations =  4.0

     negative rho (up, down):  1.812E-04 0.000E+00

     add environment contribution to local potential
     Polarization accuracy = 6.3E-12, # of iterations =  44

     total cpu time spent up to now is     5252.3 secs

     total energy              =   -3435.14957338 Ry
     estimated scf accuracy    <       0.00000004 Ry
     electrostatic embedding   =      -0.09000092 Ry
     cavitation energy         =       0.02099154 Ry
     PV energy                 =      -0.08075840 Ry
     correction to one-el term =     185.78793686 Ry

     iteration # 34     ecut=    50.00 Ry     beta= 0.70
     Davidson diagonalization with overlap
     ethr =  1.11E-11,  avg # of iterations =  3.0

     negative rho (up, down):  1.889E-04 0.000E+00

     add environment contribution to local potential
     Polarization accuracy = 6.3E-12, # of iterations =  44

     total cpu time spent up to now is     5412.3 secs

     total energy              =   -3435.14957580 Ry
     estimated scf accuracy    <       0.00000003 Ry
     electrostatic embedding   =      -0.08999704 Ry
     cavitation energy         =       0.02099145 Ry
     PV energy                 =      -0.08075882 Ry
     correction to one-el term =     185.79126350 Ry

     iteration # 35     ecut=    50.00 Ry     beta= 0.70
     Davidson diagonalization with overlap
     ethr =  7.74E-12,  avg # of iterations =  5.0

     negative rho (up, down):  1.897E-04 0.000E+00

     add environment contribution to local potential
     Polarization accuracy = 6.6E-12, # of iterations =  43

     total cpu time spent up to now is     5549.6 secs

     total energy              =   -3435.14957818 Ry
     estimated scf accuracy    <       0.00000002 Ry
     electrostatic embedding   =      -0.08999903 Ry
     cavitation energy         =       0.02099147 Ry
     PV energy                 =      -0.08075880 Ry
     correction to one-el term =     185.79154755 Ry

     iteration # 36     ecut=    50.00 Ry     beta= 0.70
     Davidson diagonalization with overlap
     ethr =  5.46E-12,  avg # of iterations =  2.0

     negative rho (up, down):  1.817E-04 0.000E+00

     add environment contribution to local potential
     Polarization accuracy = 6.7E-12, # of iterations =  43

     total cpu time spent up to now is     5679.2 secs

     total energy              =   -3435.14957996 Ry
     estimated scf accuracy    <       0.00000002 Ry
     electrostatic embedding   =      -0.09000019 Ry
     cavitation energy         =       0.02099144 Ry
     PV energy                 =      -0.08075879 Ry
     correction to one-el term =     185.79155982 Ry

     iteration # 37     ecut=    50.00 Ry     beta= 0.70
     Davidson diagonalization with overlap
     ethr =  4.51E-12,  avg # of iterations =  4.0

     negative rho (up, down):  1.641E-04 0.000E+00

     add environment contribution to local potential
     Polarization accuracy = 6.7E-12, # of iterations =  43

     total cpu time spent up to now is     5804.6 secs

     total energy              =   -3435.14958204 Ry
     estimated scf accuracy    <       0.00000001 Ry
     electrostatic embedding   =      -0.09004263 Ry
     cavitation energy         =       0.02099153 Ry
     PV energy                 =      -0.08075836 Ry
     correction to one-el term =     185.78727610 Ry

     iteration # 38     ecut=    50.00 Ry     beta= 0.70
     Davidson diagonalization with overlap
     ethr =  3.50E-12,  avg # of iterations =  5.0

     negative rho (up, down):  1.537E-04 0.000E+00

     add environment contribution to local potential
     Polarization accuracy = 6.7E-12, # of iterations =  43

     total cpu time spent up to now is     5949.0 secs

     total energy              =   -3435.14958566 Ry
     estimated scf accuracy    <          9.9E-09 Ry
     electrostatic embedding   =      -0.09007120 Ry
     cavitation energy         =       0.02099153 Ry
     PV energy                 =      -0.08075800 Ry
     correction to one-el term =     185.78315415 Ry

     iteration # 39     ecut=    50.00 Ry     beta= 0.70
     Davidson diagonalization with overlap
     ethr =  2.70E-12,  avg # of iterations =  2.0

     negative rho (up, down):  1.497E-04 0.000E+00

     add environment contribution to local potential
     Polarization accuracy = 6.4E-12, # of iterations =  43

     total cpu time spent up to now is     6069.6 secs

     total energy              =   -3435.14958706 Ry
     estimated scf accuracy    <          2.1E-09 Ry
     electrostatic embedding   =      -0.09007102 Ry
     cavitation energy         =       0.02099156 Ry
     PV energy                 =      -0.08075788 Ry
     correction to one-el term =     185.78218340 Ry

     iteration # 40     ecut=    50.00 Ry     beta= 0.70
     Davidson diagonalization with overlap
     ethr =  5.76E-13,  avg # of iterations =  5.0

     negative rho (up, down):  1.527E-04 0.000E+00

     the potential shift due to the Gaussian-smeared nuclei is    -1.3296 ev

     total cpu time spent up to now is     6217.0 secs

     End of self-consistent calculation

          k = 0.2500 0.2666 0.0000 ( 35123 PWs)   bands (ev):

   -77.7611 -77.7498 -77.6724 -77.6611 -77.0306 -77.0281 -77.0265 -77.0238
   -77.0173 -77.0130 -77.0027 -76.9848 -48.2006 -48.1893 -48.0287 -48.0174
   -47.7478 -47.7364 -47.6465 -47.6352 -47.3915 -47.3803 -47.3487 -47.3388
   -47.3377 -47.3339 -47.3306 -47.3197 -47.3011 -47.2900 -47.2210 -47.1987
   -47.0520 -46.9941 -46.9831 -46.9567 -46.9519 -46.9131 -46.9025 -46.8744
   -46.8633 -46.8525 -46.8501 -46.8465 -46.8448 -46.8357 -46.8313 -46.8305
   -25.2472 -25.2319 -23.6771 -23.5524 -23.3262 -23.2624 -23.2345 -23.0591
   -22.9823 -22.9437 -22.8261 -22.6876 -22.6415 -22.4776 -22.4643 -22.4541
   -22.3590 -22.3002 -22.2473 -22.2189 -22.0638 -22.0427 -22.0247 -21.8133
   -21.5114 -21.3835 -21.3637 -21.3387 -13.0601 -13.0441 -11.8731 -11.6807
   -11.6391 -11.5596 -11.5234 -11.3372 -11.2918 -11.0162 -10.9756 -10.9365
   -10.8589 -10.7537 -10.7484 -10.7301 -10.6604 -10.5935 -10.5071 -10.4263
   -10.3589 -10.3453 -10.2731 -10.2478 -10.1689 -10.1237  -9.9408  -9.8650
    -9.7426  -9.6809  -9.5771  -9.3530  -9.3377  -9.1889  -9.1837  -9.1127
    -9.0835  -8.9411  -8.8911  -8.7926  -8.7656  -8.6609  -8.5806  -8.5325
    -8.4446  -8.3909  -8.3883  -8.3097  -8.2756  -8.2074  -8.0697  -8.0466
    -7.9791  -7.9187  -7.8287  -7.7968  -7.7733  -7.7187  -7.7005  -7.6367
    -7.5855  -7.4918  -7.4356  -7.4152  -7.3057  -7.2139  -7.1538  -7.0837
    -6.9957  -6.8930  -6.7669  -6.7281  -6.6766  -6.4900  -6.4465  -6.4170
    -6.3629  -6.2858  -6.1859  -6.1460  -6.0445  -6.0242  -5.9433  -5.8281
    -4.8883  -4.8127  -4.6925  -4.5921  -4.5542  -4.4761  -4.4585  -4.3735
    -4.3476  -4.3203  -4.3008  -4.2982  -4.2110  -4.1799  -4.1149  -4.1112
    -4.0796  -4.0240  -3.9739  -3.9649  -3.8621  -3.8212  -3.6047  -3.5278
    -3.4871  -3.4630  -3.3360  -3.2096  -3.0135  -2.9634  -2.8948  -2.8538
    -2.7848  -2.7767  -2.5221  -2.4254  -1.9583  -1.7247  -1.6187  -1.4941
    -1.3375  -1.1969  -0.9943  -0.8294  -0.5424  -0.3467  -0.1093  -0.0831
     0.0583   0.0771   0.1872   0.3497   0.5283   0.6023   0.6273   0.8133
     0.9032   0.9671   1.0282   1.2692

     the Fermi energy is    -3.6625 ev

!    total energy              =   -3435.14958754 Ry
     estimated scf accuracy    <          8.6E-10 Ry
     smearing contrib. (-TS)   =       0.06750816 Ry
     internal energy E=F+TS    =   -3435.21709570 Ry

     The total energy is F=E-TS. E is the sum of the following terms:
     one-electron contribution =  -25385.73409009 Ry
     hartree contribution      =   12679.26668831 Ry
     xc contribution           =    -447.91218247 Ry
     ewald contribution        =    9800.05737183 Ry
     one-center paw contrib.   =    -266.52653430 Ry
     electrostatic embedding   =      -0.09007416 Ry
     cavitation energy         =       0.02099157 Ry
     PV energy                 =      -0.08075796 Ry
     correction to one-el term =     185.78149157 Ry

     WARNING: you are using the parabolic pbc correction;
              the potential shift above must be added to 
              band and Fermi energies.

     convergence has been achieved in  40 iterations

     negative rho (up, down):  1.527E-04 0.000E+00

     Forces acting on atoms (cartesian axes, Ry/au):

     atom    1 type  1   force =     0.00000000    0.00085198    0.00287599
     atom    2 type  1   force =     0.00000000    0.00212384    0.00109871
     atom    3 type  1   force =     0.00000000   -0.00709595    0.00390234
     atom    4 type  1   force =     0.00000000   -0.00400497    0.00052903
     atom    5 type  2   force =    -0.00029404   -0.00007597   -0.00405883
     atom    6 type  2   force =     0.00029404   -0.00007597   -0.00405883
     atom    7 type  1   force =    -0.00090548   -0.00033933   -0.00389961
     atom    8 type  1   force =     0.00090548   -0.00033933   -0.00389961
     atom    9 type  2   force =     0.00000000    0.00044343    0.00174321
     atom   10 type  2   force =     0.00000000    0.00170354   -0.00156172
     atom   11 type  1   force =     0.00163501    0.00056620   -0.00017626
     atom   12 type  1   force =    -0.00163501    0.00056620   -0.00017626
     atom   13 type  1   force =     0.00000000   -0.00508233   -0.00178807
     atom   14 type  1   force =     0.00000000   -0.00210890   -0.00334196
     atom   15 type  1   force =     0.00000000   -0.00076054    0.00180993
     atom   16 type  1   force =     0.00000000   -0.00067320   -0.00316701
     atom   17 type  2   force =     0.00000000    0.00061260    0.00000000
     atom   18 type  2   force =     0.00000000   -0.00025614    0.00000000
     atom   19 type  1   force =     0.00177358    0.00174822    0.00000000
     atom   20 type  1   force =    -0.00177358    0.00174822    0.00000000
     atom   21 type  2   force =     0.00392376    0.00105650    0.00000000
     atom   22 type  2   force =    -0.00392376    0.00105650    0.00000000
     atom   23 type  1   force =    -0.00095320    0.00168897    0.00000000
     atom   24 type  1   force =     0.00095320    0.00168897    0.00000000
     atom   25 type  1   force =     0.00000000   -0.00076054   -0.00180993
     atom   26 type  1   force =     0.00000000   -0.00067320    0.00316701
     atom   27 type  1   force =     0.00000000   -0.00508233    0.00178807
     atom   28 type  1   force =     0.00000000   -0.00210890    0.00334196
     atom   29 type  2   force =    -0.00029404   -0.00007597    0.00405883
     atom   30 type  2   force =     0.00029404   -0.00007597    0.00405883
     atom   31 type  1   force =    -0.00090548   -0.00033933    0.00389961
     atom   32 type  1   force =     0.00090548   -0.00033933    0.00389961
     atom   33 type  2   force =     0.00000000    0.00044343   -0.00174321
     atom   34 type  2   force =     0.00000000    0.00170354    0.00156172
     atom   35 type  1   force =     0.00163501    0.00056620    0.00017626
     atom   36 type  1   force =    -0.00163501    0.00056620    0.00017626
     atom   37 type  1   force =     0.00000000   -0.00709595   -0.00390234
     atom   38 type  1   force =     0.00000000   -0.00400497   -0.00052903
     atom   39 type  1   force =     0.00000000    0.00085198   -0.00287599
     atom   40 type  1   force =     0.00000000    0.00212384   -0.00109871
     atom   41 type  3   force =     0.00000000    0.00816979    0.00307906
     atom   42 type  3   force =     0.00000000    0.00816979   -0.00307906
     atom   43 type  3   force =     0.00000000   -0.00284561   -0.00176691
     atom   44 type  3   force =     0.00000000   -0.00284561    0.00176691
     atom   45 type  3   force =     0.00000000    0.00430520    0.00639899
     atom   46 type  3   force =     0.00000000    0.00430520   -0.00639899
     The non-local contrib.  to forces
     atom    1 type  1   force =     0.00000000   -0.11614156    1.09058014
     atom    2 type  1   force =     0.00000000    0.04531644    1.19162275
     atom    3 type  1   force =     0.00000000   -0.02287754   -1.09779758
     atom    4 type  1   force =     0.00000000    1.42759328    0.15695009
     atom    5 type  2   force =    -0.03140904    0.00292765    0.03930095
     atom    6 type  2   force =     0.03140904    0.00292765    0.03930095
     atom    7 type  1   force =     0.02358711   -0.02933447   -0.33222369
     atom    8 type  1   force =    -0.02358711   -0.02933447   -0.33222369
     atom    9 type  2   force =     0.00000000   -0.00873507   -0.00528371
     atom   10 type  2   force =     0.00000000    0.00502001   -0.00807183
     atom   11 type  1   force =    -0.00757006   -0.00861033    0.13442194
     atom   12 type  1   force =     0.00757006   -0.00861033    0.13442194
     atom   13 type  1   force =     0.00000000    0.06856129   -0.00741141
     atom   14 type  1   force =     0.00000000    0.06091100   -0.13360785
     atom   15 type  1   force =     0.00000000   -0.11221917    0.14522868
     atom   16 type  1   force =     0.00000000   -0.07243470    0.19512728
     atom   17 type  2   force =     0.00000000   -0.00198827    0.00000000
     atom   18 type  2   force =     0.00000000    0.00678261    0.00000000
     atom   19 type  1   force =    -0.00576690    0.05559637    0.00000000
     atom   20 type  1   force =     0.00576690    0.05559637    0.00000000
     atom   21 type  2   force =     0.00281484    0.00742347    0.00000000
     atom   22 type  2   force =    -0.00281484    0.00742347    0.00000000
     atom   23 type  1   force =    -0.00381914   -0.03949047    0.00000000
     atom   24 type  1   force =     0.00381914   -0.03949047    0.00000000
     atom   25 type  1   force =     0.00000000   -0.11221917   -0.14522868
     atom   26 type  1   force =     0.00000000   -0.07243470   -0.19512728
     atom   27 type  1   force =     0.00000000    0.06856129    0.00741141
     atom   28 type  1   force =     0.00000000    0.06091100    0.13360785
     atom   29 type  2   force =    -0.03140904    0.00292765   -0.03930095
     atom   30 type  2   force =     0.03140904    0.00292765   -0.03930095
     atom   31 type  1   force =     0.02358711   -0.02933447    0.33222369
     atom   32 type  1   force =    -0.02358711   -0.02933447    0.33222369
     atom   33 type  2   force =     0.00000000   -0.00873507    0.00528371
     atom   34 type  2   force =     0.00000000    0.00502001    0.00807183
     atom   35 type  1   force =    -0.00757006   -0.00861033   -0.13442194
     atom   36 type  1   force =     0.00757006   -0.00861033   -0.13442194
     atom   37 type  1   force =     0.00000000   -0.02287754    1.09779758
     atom   38 type  1   force =     0.00000000    1.42759328   -0.15695009
     atom   39 type  1   force =     0.00000000   -0.11614156   -1.09058014
     atom   40 type  1   force =     0.00000000    0.04531644   -1.19162275
     atom   41 type  3   force =     0.00000000   -0.06154514    0.02657327
     atom   42 type  3   force =     0.00000000   -0.06154514   -0.02657327
     atom   43 type  3   force =     0.00000000   -0.08355928    0.05090781
     atom   44 type  3   force =     0.00000000   -0.08355928   -0.05090781
     atom   45 type  3   force =     0.00000000    0.07108116    0.08481081
     atom   46 type  3   force =     0.00000000    0.07108116   -0.08481081
     The ionic contribution  to forces
     atom    1 type  1   force =     0.00000000    0.30803610  -98.89593923
     atom    2 type  1   force =     0.00000000   -0.07723578 -100.04472003
     atom    3 type  1   force =     0.00000000   -2.14505867  -89.28103135
     atom    4 type  1   force =     0.00000000   -3.79877414  -92.17883372
     atom    5 type  2   force =    -2.37050511   -2.69367635 -168.02239596
     atom    6 type  2   force =     2.37050511   -2.69367635 -168.02239596
     atom    7 type  1   force =    -0.32545879    0.04909011  -57.00827552
     atom    8 type  1   force =     0.32545879    0.04909011  -57.00827552
     atom    9 type  2   force =    -0.00000000    4.01952916 -171.98961680
     atom   10 type  2   force =     0.00000000    4.46364996 -171.94923110
     atom   11 type  1   force =    -0.13810432    0.98363877  -68.25161073
     atom   12 type  1   force =     0.13810432    0.98363877  -68.25161073
     atom   13 type  1   force =     0.00000000   -0.97431478  -38.79278161
     atom   14 type  1   force =    -0.00000000   -1.12018899  -37.52390515
     atom   15 type  1   force =    -0.00000000    0.73994523  -27.01955624
     atom   16 type  1   force =     0.00000000    0.66561861  -27.06319399
     atom   17 type  2   force =     0.00000000    0.71076007   -0.00045248
     atom   18 type  2   force =    -0.00000000    1.00468303   -0.00046696
     atom   19 type  1   force =     0.02997571    1.36664098   -0.00008529
     atom   20 type  1   force =    -0.02997571    1.36664098   -0.00008529
     atom   21 type  2   force =    -0.21045203   -0.16866682   -0.00024461
     atom   22 type  2   force =     0.21045203   -0.16866682   -0.00024461
     atom   23 type  1   force =    -0.05437737   -1.50767316   -0.00008128
     atom   24 type  1   force =     0.05437737   -1.50767316   -0.00008128
     atom   25 type  1   force =    -0.00000000    0.73994935   27.01937789
     atom   26 type  1   force =     0.00000000    0.66562262   27.06299587
     atom   27 type  1   force =    -0.00000000   -0.97432890   38.79306899
     atom   28 type  1   force =     0.00000000   -1.12020507   37.52421227
     atom   29 type  2   force =    -2.37045598   -2.69366720  168.02270630
     atom   30 type  2   force =     2.37045598   -2.69366720  168.02270630
     atom   31 type  1   force =    -0.32545644    0.04906630   57.00835228
     atom   32 type  1   force =     0.32545644    0.04906630   57.00835228
     atom   33 type  2   force =    -0.00000000    4.01952987  171.98977559
     atom   34 type  2   force =     0.00000000    4.46365585  171.94938522
     atom   35 type  1   force =    -0.13810085    0.98366152   68.25167730
     atom   36 type  1   force =     0.13810085    0.98366152   68.25167730
     atom   37 type  1   force =     0.00000000   -2.14498582   89.28100172
     atom   38 type  1   force =     0.00000000   -3.79899303   92.17893216
     atom   39 type  1   force =    -0.00000000    0.30804766   98.89601420
     atom   40 type  1   force =     0.00000000   -0.07722732  100.04478859
     atom   41 type  3   force =    -0.00000000    1.18990124  -16.22166287
     atom   42 type  3   force =    -0.00000000    1.19002798   16.22160407
     atom   43 type  3   force =    -0.00000000    1.76956277  -16.91471785
     atom   44 type  3   force =    -0.00000000    1.76976005   16.91470368
     atom   45 type  3   force =    -0.00000000   -2.26678394  -17.41780533
     atom   46 type  3   force =     0.00000000   -2.26701141   17.41796945
     The local contribution  to forces
     atom    1 type  1   force =    -0.00000000   -0.16200951   97.75077083
     atom    2 type  1   force =     0.00000000    0.08833048   98.76404038
     atom    3 type  1   force =     0.00000000    2.23830816   90.52810164
     atom    4 type  1   force =    -0.00000000    2.35499460   92.00524622
     atom    5 type  2   force =     2.45924218    2.69396273  168.01987376
     atom    6 type  2   force =    -2.45924218    2.69396273  168.01987376
     atom    7 type  1   force =     0.31224453   -0.00575200   57.32518074
     atom    8 type  1   force =    -0.31224453   -0.00575200   57.32518074
     atom    9 type  2   force =    -0.00000000   -4.02931905  171.97745058
     atom   10 type  2   force =    -0.00000000   -4.45173472  171.86203012
     atom   11 type  1   force =     0.17493238   -0.99696097   68.10917184
     atom   12 type  1   force =    -0.17493238   -0.99696097   68.10917184
     atom   13 type  1   force =     0.00000000    0.90282982   38.80972709
     atom   14 type  1   force =     0.00000000    1.05682160   37.65011369
     atom   15 type  1   force =    -0.00000000   -0.63071448   26.87698911
     atom   16 type  1   force =     0.00000000   -0.59466707   26.86147549
     atom   17 type  2   force =    -0.00000000   -0.70727010   -0.00584867
     atom   18 type  2   force =     0.00000000   -1.01163717   -0.00580846
     atom   19 type  1   force =    -0.02074759   -1.41886782   -0.00244136
     atom   20 type  1   force =     0.02074759   -1.41886782   -0.00244136
     atom   21 type  2   force =     0.21613607    0.16180212   -0.00603408
     atom   22 type  2   force =    -0.21613607    0.16180212   -0.00603408
     atom   23 type  1   force =     0.05919054    1.54749592   -0.00244853
     atom   24 type  1   force =    -0.05919054    1.54749592   -0.00244853
     atom   25 type  1   force =     0.00000000   -0.63072739  -26.87877066
     atom   26 type  1   force =    -0.00000000   -0.59468201  -26.86328332
     atom   27 type  1   force =    -0.00000000    0.90282662  -38.81152149
     atom   28 type  1   force =     0.00000000    1.05682015  -37.65187277
     atom   29 type  2   force =     2.45926588    2.69395410 -168.02589073
     atom   30 type  2   force =    -2.45926588    2.69395410 -168.02589073
     atom   31 type  1   force =     0.31224834   -0.00571448  -57.32758232
     atom   32 type  1   force =    -0.31224834   -0.00571448  -57.32758232
     atom   33 type  2   force =     0.00000000   -4.02941783 -171.98323926
     atom   34 type  2   force =     0.00000000   -4.45180348 -171.86781886
     atom   35 type  1   force =     0.17493610   -0.99701085  -68.11161248
     atom   36 type  1   force =    -0.17493610   -0.99701085  -68.11161248
     atom   37 type  1   force =     0.00000000    2.23831860  -90.53180618
     atom   38 type  1   force =     0.00000000    2.35511347  -92.00904579
     atom   39 type  1   force =    -0.00000000   -0.16211754  -97.75228183
     atom   40 type  1   force =     0.00000000    0.08823979  -98.76548865
     atom   41 type  3   force =    -0.00000000   -1.09580310   16.21079771
     atom   42 type  3   force =     0.00000000   -1.09580310  -16.21079771
     atom   43 type  3   force =     0.00000000   -1.68355428   16.86246071
     atom   44 type  3   force =     0.00000000   -1.68355428  -16.86246071
     atom   45 type  3   force =    -0.00000000    2.22857542   17.41015748
     atom   46 type  3   force =     0.00000000    2.22857542  -17.41015748
     The core correction contribution to forces
     atom    1 type  1   force =     0.00000000    0.00134437   -0.00989510
     atom    2 type  1   force =    -0.00000000   -0.00014688   -0.01047850
     atom    3 type  1   force =    -0.00000000    0.00072332    0.00990072
     atom    4 type  1   force =     0.00000000   -0.01400677   -0.00225638
     atom    5 type  2   force =     0.00000000    0.00000000    0.00000000
     atom    6 type  2   force =     0.00000000    0.00000000    0.00000000
     atom    7 type  1   force =    -0.00022490   -0.00029222    0.00344879
     atom    8 type  1   force =     0.00022490   -0.00029222    0.00344879
     atom    9 type  2   force =     0.00000000    0.00000000    0.00000000
     atom   10 type  2   force =     0.00000000    0.00000000    0.00000000
     atom   11 type  1   force =     0.00004335    0.00068977   -0.00129724
     atom   12 type  1   force =    -0.00004335    0.00068977   -0.00129724
     atom   13 type  1   force =    -0.00000000   -0.00071535    0.00013388
     atom   14 type  1   force =     0.00000000   -0.00057097    0.00169971
     atom   15 type  1   force =     0.00000000    0.00130375   -0.00176706
     atom   16 type  1   force =     0.00000000    0.00079844   -0.00216965
     atom   17 type  2   force =     0.00000000    0.00000000    0.00000000
     atom   18 type  2   force =     0.00000000    0.00000000    0.00000000
     atom   19 type  1   force =     0.00000830   -0.00026531   -0.00000201
     atom   20 type  1   force =    -0.00000830   -0.00026531   -0.00000201
     atom   21 type  2   force =     0.00000000    0.00000000    0.00000000
     atom   22 type  2   force =     0.00000000    0.00000000    0.00000000
     atom   23 type  1   force =     0.00001254    0.00013812   -0.00000188
     atom   24 type  1   force =    -0.00001254    0.00013812   -0.00000188
     atom   25 type  1   force =    -0.00000000    0.00130414    0.00176486
     atom   26 type  1   force =     0.00000000    0.00079869    0.00216745
     atom   27 type  1   force =     0.00000000   -0.00071555   -0.00013602
     atom   28 type  1   force =    -0.00000000   -0.00057117   -0.00170185
     atom   29 type  2   force =     0.00000000    0.00000000    0.00000000
     atom   30 type  2   force =     0.00000000    0.00000000    0.00000000
     atom   31 type  1   force =    -0.00022487   -0.00029210   -0.00345028
     atom   32 type  1   force =     0.00022487   -0.00029210   -0.00345028
     atom   33 type  2   force =     0.00000000    0.00000000    0.00000000
     atom   34 type  2   force =     0.00000000    0.00000000    0.00000000
     atom   35 type  1   force =     0.00004339    0.00068955    0.00129544
     atom   36 type  1   force =    -0.00004339    0.00068955    0.00129544
     atom   37 type  1   force =    -0.00000000    0.00072395   -0.00990494
     atom   38 type  1   force =     0.00000000   -0.01400886    0.00225254
     atom   39 type  1   force =     0.00000000    0.00134422    0.00989263
     atom   40 type  1   force =     0.00000000   -0.00014716    0.01047629
     atom   41 type  3   force =     0.00000000    0.00000000    0.00000000
     atom   42 type  3   force =     0.00000000    0.00000000    0.00000000
     atom   43 type  3   force =     0.00000000    0.00000000    0.00000000
     atom   44 type  3   force =     0.00000000    0.00000000    0.00000000
     atom   45 type  3   force =     0.00000000    0.00000000    0.00000000
     atom   46 type  3   force =     0.00000000    0.00000000    0.00000000
     The Hubbard contrib.    to forces
     atom    1 type  1   force =     0.00000000    0.00000000    0.00000000
     atom    2 type  1   force =     0.00000000    0.00000000    0.00000000
     atom    3 type  1   force =     0.00000000    0.00000000    0.00000000
     atom    4 type  1   force =     0.00000000    0.00000000    0.00000000
     atom    5 type  2   force =     0.00000000    0.00000000    0.00000000
     atom    6 type  2   force =     0.00000000    0.00000000    0.00000000
     atom    7 type  1   force =     0.00000000    0.00000000    0.00000000
     atom    8 type  1   force =     0.00000000    0.00000000    0.00000000
     atom    9 type  2   force =     0.00000000    0.00000000    0.00000000
     atom   10 type  2   force =     0.00000000    0.00000000    0.00000000
     atom   11 type  1   force =     0.00000000    0.00000000    0.00000000
     atom   12 type  1   force =     0.00000000    0.00000000    0.00000000
     atom   13 type  1   force =     0.00000000    0.00000000    0.00000000
     atom   14 type  1   force =     0.00000000    0.00000000    0.00000000
     atom   15 type  1   force =     0.00000000    0.00000000    0.00000000
     atom   16 type  1   force =     0.00000000    0.00000000    0.00000000
     atom   17 type  2   force =     0.00000000    0.00000000    0.00000000
     atom   18 type  2   force =     0.00000000    0.00000000    0.00000000
     atom   19 type  1   force =     0.00000000    0.00000000    0.00000000
     atom   20 type  1   force =     0.00000000    0.00000000    0.00000000
     atom   21 type  2   force =     0.00000000    0.00000000    0.00000000
     atom   22 type  2   force =     0.00000000    0.00000000    0.00000000
     atom   23 type  1   force =     0.00000000    0.00000000    0.00000000
     atom   24 type  1   force =     0.00000000    0.00000000    0.00000000
     atom   25 type  1   force =     0.00000000    0.00000000    0.00000000
     atom   26 type  1   force =     0.00000000    0.00000000    0.00000000
     atom   27 type  1   force =     0.00000000    0.00000000    0.00000000
     atom   28 type  1   force =     0.00000000    0.00000000    0.00000000
     atom   29 type  2   force =     0.00000000    0.00000000    0.00000000
     atom   30 type  2   force =     0.00000000    0.00000000    0.00000000
     atom   31 type  1   force =     0.00000000    0.00000000    0.00000000
     atom   32 type  1   force =     0.00000000    0.00000000    0.00000000
     atom   33 type  2   force =     0.00000000    0.00000000    0.00000000
     atom   34 type  2   force =     0.00000000    0.00000000    0.00000000
     atom   35 type  1   force =     0.00000000    0.00000000    0.00000000
     atom   36 type  1   force =     0.00000000    0.00000000    0.00000000
     atom   37 type  1   force =     0.00000000    0.00000000    0.00000000
     atom   38 type  1   force =     0.00000000    0.00000000    0.00000000
     atom   39 type  1   force =     0.00000000    0.00000000    0.00000000
     atom   40 type  1   force =     0.00000000    0.00000000    0.00000000
     atom   41 type  3   force =     0.00000000    0.00000000    0.00000000
     atom   42 type  3   force =     0.00000000    0.00000000    0.00000000
     atom   43 type  3   force =     0.00000000    0.00000000    0.00000000
     atom   44 type  3   force =     0.00000000    0.00000000    0.00000000
     atom   45 type  3   force =     0.00000000    0.00000000    0.00000000
     atom   46 type  3   force =     0.00000000    0.00000000    0.00000000
     The SCF correction term to forces
     atom    1 type  1   force =     0.00000000    0.00000494    0.00000525
     atom    2 type  1   force =    -0.00000000   -0.00000146    0.00001444
     atom    3 type  1   force =     0.00000000   -0.00000806    0.00000948
     atom    4 type  1   force =    -0.00000000    0.00000256    0.00000738
     atom    5 type  2   force =     0.00000296   -0.00000424    0.00002417
     atom    6 type  2   force =    -0.00000296   -0.00000424    0.00002417
     atom    7 type  1   force =     0.00000965    0.00000459    0.00001445
     atom    8 type  1   force =    -0.00000965    0.00000459    0.00001445
     atom    9 type  2   force =     0.00000000    0.00001068    0.00003585
     atom   10 type  2   force =    -0.00000000    0.00000192    0.00004082
     atom   11 type  1   force =     0.00000562   -0.00000202    0.00001262
     atom   12 type  1   force =    -0.00000562   -0.00000202    0.00001262
     atom   13 type  1   force =     0.00000000   -0.00000218    0.00000424
     atom   14 type  1   force =    -0.00000000   -0.00000055    0.00001199
     atom   15 type  1   force =     0.00000000    0.00000075    0.00002478
     atom   16 type  1   force =    -0.00000000   -0.00000093    0.00001889
     atom   17 type  2   force =     0.00000000   -0.00000154    0.00001008
     atom   18 type  2   force =    -0.00000000   -0.00000041    0.00001011
     atom   19 type  1   force =     0.00000900    0.00001966    0.00000372
     atom   20 type  1   force =    -0.00000900    0.00001966    0.00000372
     atom   21 type  2   force =     0.00001830    0.00000068    0.00000987
     atom   22 type  2   force =    -0.00001830    0.00000068    0.00000987
     atom   23 type  1   force =     0.00000849   -0.00001976    0.00000372
     atom   24 type  1   force =    -0.00000849   -0.00001976    0.00000372
     atom   25 type  1   force =     0.00000000    0.00000073   -0.00001852
     atom   26 type  1   force =    -0.00000000   -0.00000095   -0.00001256
     atom   27 type  1   force =     0.00000000   -0.00000214    0.00000046
     atom   28 type  1   force =    -0.00000000   -0.00000051   -0.00000720
     atom   29 type  2   force =     0.00000311   -0.00000421   -0.00002090
     atom   30 type  2   force =    -0.00000311   -0.00000421   -0.00002090
     atom   31 type  1   force =     0.00000968    0.00000451   -0.00001282
     atom   32 type  1   force =    -0.00000968    0.00000451   -0.00001282
     atom   33 type  2   force =     0.00000000    0.00001069   -0.00003382
     atom   34 type  2   force =    -0.00000000    0.00000189   -0.00003890
     atom   35 type  1   force =     0.00000565   -0.00000195   -0.00001195
     atom   36 type  1   force =    -0.00000565   -0.00000195   -0.00001195
     atom   37 type  1   force =     0.00000000   -0.00000811   -0.00001147
     atom   38 type  1   force =    -0.00000000    0.00000253   -0.00000920
     atom   39 type  1   force =     0.00000000    0.00000498   -0.00000763
     atom   40 type  1   force =    -0.00000000   -0.00000142   -0.00001683
     atom   41 type  3   force =     0.00000000   -0.00000165    0.00000117
     atom   42 type  3   force =     0.00000000   -0.00000167   -0.00000153
     atom   43 type  3   force =    -0.00000000    0.00000022    0.00000146
     atom   44 type  3   force =    -0.00000000    0.00000020   -0.00000182
     atom   45 type  3   force =     0.00000000    0.00000009    0.00000155
     atom   46 type  3   force =     0.00000000    0.00000010   -0.00000193

     Total force =     0.028610     Total SCF correction =     0.000126

     BFGS Geometry Optimization
     Energy error            =      0.0E+00 Ry
     Gradient error          =      8.2E-03 Ry/Bohr

     number of scf cycles    =   1
     number of bfgs steps    =   0

     energy             new  =   -3435.1495875394 Ry

     new trust radius        =       0.0087307567 bohr
     new conv_thr            =       0.0000000010 Ry


ATOMIC_POSITIONS (crystal)
O             0.0000000000        0.4205656553        0.2736404332
O             0.5000000000        0.4416965656        0.2736341273
O             0.0000000000        0.0163773601        0.2928627508
O             0.5000000000        0.0093696918        0.3016321593
Ru            0.2539838023       -0.0046802673        0.3601153822
Ru            0.7460161977       -0.0046802673        0.3601153822
O             0.2525364566        0.3051159888        0.3651801436
O             0.7474635434        0.3051159888        0.3651801436
Ru            0.0000000000        0.4919732475        0.3525187582
Ru            0.5000000000        0.4938275085        0.3516665187
O             0.2471859323        0.6866145182        0.3504833091
O             0.7528140677        0.6866145182        0.3504833091
O             0.0000000000       -0.0103149007        0.4116861019
O             0.5000000000       -0.0108711780        0.4124114054
O             0.0000000000        0.5113559462        0.4437581930
O             0.5000000000        0.5113852552        0.4451869853
Ru            0.0000000000        0.0045449979        0.5000010000
Ru            0.5000000000        0.0047243917        0.5000010000
O             0.2489408245        0.1936583866        0.5000010000
O             0.7510591755        0.1936583866        0.5000010000
Ru            0.2491210987        0.5052167430        0.5000010000
Ru            0.7508789013        0.5052167430        0.5000010000
O             0.2497241794        0.8175168325        0.5000010000
O             0.7502758206        0.8175168325        0.5000010000
O             0.0000000000        0.5113559462        0.5562428070
O             0.5000000000        0.5113852552        0.5548140147
O             0.0000000000       -0.0103149007        0.5883148981
O             0.5000000000       -0.0108711780        0.5875895946
Ru            0.2539838023       -0.0046802673        0.6398856178
Ru            0.7460161977       -0.0046802673        0.6398856178
O             0.2525364566        0.3051159888        0.6348208564
O             0.7474635434        0.3051159888        0.6348208564
Ru            0.0000000000        0.4919732475        0.6474822418
Ru            0.5000000000        0.4938275085        0.6483344813
O             0.2471859323        0.6866145182        0.6495176909
O             0.7528140677        0.6866145182        0.6495176909
O             0.0000000000        0.0163773601        0.7071392492
O             0.5000000000        0.0093696918        0.6983698407
O             0.0000000000        0.4205656553        0.7263605668
O             0.5000000000        0.4416965656        0.7263668727
H             0.0000000000        0.1794482094        0.2752060249
H             0.0000000000        0.1794482094        0.7247939751
H             0.5000000000        0.1513406792        0.2789734250
H             0.5000000000        0.1513406792        0.7210265750
H             0.0000000000        0.9129358235        0.2587334306
H             0.0000000000        0.9129358235        0.7412665694



     Writing config-only to output data dir /storage/home/mgm6007/ixd4/Maria/Strain2_Files/RuO2-110-0-234/RuO2-110-0-234.save/
     NEW-OLD atomic charge density approx. for the potential

     Check: negative core charge=   -0.000001

     negative rho (up, down):  1.539E-04 0.000E+00

     add environment contribution to local potential
     Polarization accuracy = 6.1E-12, # of iterations =  43

     total cpu time spent up to now is     6360.6 secs

     per-process dynamical memory:   205.2 Mb

     Self-consistent Calculation

     iteration #  1     ecut=    50.00 Ry     beta= 0.70
     Davidson diagonalization with overlap
     ethr =  1.00E-06,  avg # of iterations =  3.0

     Threshold (ethr) on eigenvalues was too large:
     Diagonalizing with lowered threshold

     Davidson diagonalization with overlap
     ethr =  3.03E-08,  avg # of iterations =  2.0

     negative rho (up, down):  1.607E-04 0.000E+00

     add environment contribution to local potential
     Polarization accuracy = 7.0E-12, # of iterations =  43

     total cpu time spent up to now is     6516.5 secs

     total energy              =   -3435.15021863 Ry
     estimated scf accuracy    <       0.00011585 Ry
     electrostatic embedding   =      -0.09137114 Ry
     cavitation energy         =       0.02098137 Ry
     PV energy                 =      -0.08072742 Ry
     correction to one-el term =     185.62764014 Ry

     iteration #  2     ecut=    50.00 Ry     beta= 0.70
     Davidson diagonalization with overlap
     ethr =  3.17E-08,  avg # of iterations =  2.0

     negative rho (up, down):  1.579E-04 0.000E+00

     add environment contribution to local potential
     Polarization accuracy = 9.8E-12, # of iterations =  43

     total cpu time spent up to now is     6658.5 secs

     total energy              =   -3435.15021201 Ry
     estimated scf accuracy    <       0.00010776 Ry
     electrostatic embedding   =      -0.09078343 Ry
     cavitation energy         =       0.02098016 Ry
     PV energy                 =      -0.08074088 Ry
     correction to one-el term =     185.66726224 Ry

     iteration #  3     ecut=    50.00 Ry     beta= 0.70
     Davidson diagonalization with overlap
     ethr =  2.94E-08,  avg # of iterations =  2.0

     negative rho (up, down):  1.490E-04 0.000E+00

     add environment contribution to local potential
     Polarization accuracy = 6.7E-12, # of iterations =  43

     total cpu time spent up to now is     6794.9 secs

     total energy              =   -3435.15021607 Ry
     estimated scf accuracy    <       0.00004331 Ry
     electrostatic embedding   =      -0.09063427 Ry
     cavitation energy         =       0.02098070 Ry
     PV energy                 =      -0.08074273 Ry
     correction to one-el term =     185.67352776 Ry

     iteration #  4     ecut=    50.00 Ry     beta= 0.70
     Davidson diagonalization with overlap
     ethr =  1.18E-08,  avg # of iterations =  2.0

     negative rho (up, down):  1.465E-04 0.000E+00

     add environment contribution to local potential
     Polarization accuracy = 6.6E-12, # of iterations =  43

     total cpu time spent up to now is     6945.1 secs

     total energy              =   -3435.15021686 Ry
     estimated scf accuracy    <       0.00000796 Ry
     electrostatic embedding   =      -0.09026919 Ry
     cavitation energy         =       0.02098201 Ry
     PV energy                 =      -0.08074683 Ry
     correction to one-el term =     185.68271841 Ry

     iteration #  5     ecut=    50.00 Ry     beta= 0.70
     Davidson diagonalization with overlap
     ethr =  2.17E-09,  avg # of iterations =  3.0

     negative rho (up, down):  1.431E-04 0.000E+00

     add environment contribution to local potential
     Polarization accuracy = 6.5E-12, # of iterations =  43

     total cpu time spent up to now is     7089.0 secs

     total energy              =   -3435.15021617 Ry
     estimated scf accuracy    <       0.00000321 Ry
     electrostatic embedding   =      -0.09016293 Ry
     cavitation energy         =       0.02098277 Ry
     PV energy                 =      -0.08074646 Ry
     correction to one-el term =     185.68632163 Ry

     iteration #  6     ecut=    50.00 Ry     beta= 0.70
     Davidson diagonalization with overlap
     ethr =  8.78E-10,  avg # of iterations =  3.0

     negative rho (up, down):  1.420E-04 0.000E+00

     add environment contribution to local potential
     Polarization accuracy = 6.3E-12, # of iterations =  43

     total cpu time spent up to now is     7226.1 secs

     total energy              =   -3435.15021475 Ry
     estimated scf accuracy    <       0.00000102 Ry
     electrostatic embedding   =      -0.09002806 Ry
     cavitation energy         =       0.02098356 Ry
     PV energy                 =      -0.08074563 Ry
     correction to one-el term =     185.69019187 Ry

     iteration #  7     ecut=    50.00 Ry     beta= 0.70
     Davidson diagonalization with overlap
     ethr =  2.79E-10,  avg # of iterations =  4.0

     negative rho (up, down):  1.435E-04 0.000E+00

     add environment contribution to local potential
     Polarization accuracy = 6.5E-12, # of iterations =  43

     total cpu time spent up to now is     7382.5 secs

     total energy              =   -3435.15021282 Ry
     estimated scf accuracy    <       0.00000052 Ry
     electrostatic embedding   =      -0.08986728 Ry
     cavitation energy         =       0.02098422 Ry
     PV energy                 =      -0.08074485 Ry
     correction to one-el term =     185.69720201 Ry

     iteration #  8     ecut=    50.00 Ry     beta= 0.70
     Davidson diagonalization with overlap
     ethr =  1.43E-10,  avg # of iterations =  4.0

     negative rho (up, down):  1.495E-04 0.000E+00

     add environment contribution to local potential
     Polarization accuracy = 4.9E-12, # of iterations =  43

     total cpu time spent up to now is     7516.3 secs

     total energy              =   -3435.15021067 Ry
     estimated scf accuracy    <       0.00000034 Ry
     electrostatic embedding   =      -0.08968369 Ry
     cavitation energy         =       0.02098473 Ry
     PV energy                 =      -0.08074420 Ry
     correction to one-el term =     185.70777137 Ry

     iteration #  9     ecut=    50.00 Ry     beta= 0.70
     Davidson diagonalization with overlap
     ethr =  9.21E-11,  avg # of iterations =  4.0

     negative rho (up, down):  1.595E-04 0.000E+00

     add environment contribution to local potential
     Polarization accuracy = 4.0E-12, # of iterations =  43

     total cpu time spent up to now is     7668.6 secs

     total energy              =   -3435.15020870 Ry
     estimated scf accuracy    <       0.00000011 Ry
     electrostatic embedding   =      -0.08942876 Ry
     cavitation energy         =       0.02098503 Ry
     PV energy                 =      -0.08074406 Ry
     correction to one-el term =     185.72531654 Ry

     iteration # 10     ecut=    50.00 Ry     beta= 0.70
     Davidson diagonalization with overlap
     ethr =  3.11E-11,  avg # of iterations =  4.0

     negative rho (up, down):  1.651E-04 0.000E+00

     add environment contribution to local potential
     Polarization accuracy = 4.9E-12, # of iterations =  43

     total cpu time spent up to now is     7807.9 secs

     total energy              =   -3435.15020631 Ry
     estimated scf accuracy    <       0.00000006 Ry
     electrostatic embedding   =      -0.08919193 Ry
     cavitation energy         =       0.02098490 Ry
     PV energy                 =      -0.08074447 Ry
     correction to one-el term =     185.74466225 Ry

     iteration # 11     ecut=    50.00 Ry     beta= 0.70
     Davidson diagonalization with overlap
     ethr =  1.57E-11,  avg # of iterations =  4.0

     negative rho (up, down):  1.677E-04 0.000E+00

     add environment contribution to local potential
     Polarization accuracy = 5.2E-12, # of iterations =  44

     total cpu time spent up to now is     7952.8 secs

     total energy              =   -3435.15020524 Ry
     estimated scf accuracy    <       0.00000005 Ry
     electrostatic embedding   =      -0.08910268 Ry
     cavitation energy         =       0.02098461 Ry
     PV energy                 =      -0.08074495 Ry
     correction to one-el term =     185.75345629 Ry

     iteration # 12     ecut=    50.00 Ry     beta= 0.70
     Davidson diagonalization with overlap
     ethr =  1.23E-11,  avg # of iterations =  3.0

     negative rho (up, down):  1.663E-04 0.000E+00

     add environment contribution to local potential
     Polarization accuracy = 6.1E-12, # of iterations =  43

     total cpu time spent up to now is     8100.5 secs

     total energy              =   -3435.15020489 Ry
     estimated scf accuracy    <       0.00000003 Ry
     electrostatic embedding   =      -0.08906970 Ry
     cavitation energy         =       0.02098436 Ry
     PV energy                 =      -0.08074536 Ry
     correction to one-el term =     185.75769475 Ry

     iteration # 13     ecut=    50.00 Ry     beta= 0.70
     Davidson diagonalization with overlap
     ethr =  7.29E-12,  avg # of iterations =  2.0

     negative rho (up, down):  1.659E-04 0.000E+00

     add environment contribution to local potential
     Polarization accuracy = 6.2E-12, # of iterations =  43

     total cpu time spent up to now is     8243.8 secs

     total energy              =   -3435.15020504 Ry
     estimated scf accuracy    <       0.00000001 Ry
     electrostatic embedding   =      -0.08907443 Ry
     cavitation energy         =       0.02098413 Ry
     PV energy                 =      -0.08074578 Ry
     correction to one-el term =     185.75843823 Ry

     iteration # 14     ecut=    50.00 Ry     beta= 0.70
     Davidson diagonalization with overlap
     ethr =  3.67E-12,  avg # of iterations =  4.0

     negative rho (up, down):  1.595E-04 0.000E+00

     add environment contribution to local potential
     Polarization accuracy = 6.4E-12, # of iterations =  43

     total cpu time spent up to now is     8408.5 secs

     total energy              =   -3435.15020461 Ry
     estimated scf accuracy    <          9.7E-09 Ry
     electrostatic embedding   =      -0.08903999 Ry
[...]
     atom    5 type  2   force =    -0.09386322   -0.86114041  169.09490918
     atom    6 type  2   force =     0.09386322   -0.86114041  169.09490918
     atom    7 type  1   force =    -0.52454982    0.62552438   64.82920202
     atom    8 type  1   force =     0.52454982    0.62552438   64.82920202
     atom    9 type  2   force =    -0.00000000    1.17713023  168.63666874
     atom   10 type  2   force =     0.00000000    0.68024477  173.85476189
     atom   11 type  1   force =    -0.56061266   -0.36566692   61.10512669
     atom   12 type  1   force =     0.56061266   -0.36566692   61.10512669
     atom   13 type  1   force =    -0.00000000   -0.27151124   37.93588860
     atom   14 type  1   force =     0.00000000   -0.41971665   37.88223524
     atom   15 type  1   force =    -0.00000000    0.18041452   25.50880135
     atom   16 type  1   force =    -0.00000000    0.20087371   27.41961951
     atom   17 type  2   force =    -0.00000000    0.65734608   -0.00584446
     atom   18 type  2   force =     0.00000000    0.79711741   -0.00583956
     atom   19 type  1   force =    -0.11738951   -1.40862470   -0.00244702
     atom   20 type  1   force =     0.11738951   -1.40862470   -0.00244702
     atom   21 type  2   force =    -1.69802634   -0.14804369   -0.00602499
     atom   22 type  2   force =     1.69802634   -0.14804369   -0.00602499
     atom   23 type  1   force =    -0.08294154    1.43373838   -0.00244795
     atom   24 type  1   force =     0.08294154    1.43373838   -0.00244795
     atom   25 type  1   force =     0.00000000    0.18042814  -25.51058147
     atom   26 type  1   force =    -0.00000000    0.20089008  -27.42140109
     atom   27 type  1   force =    -0.00000000   -0.27150542  -37.93767225
     atom   28 type  1   force =     0.00000000   -0.41970596  -37.88399646
     atom   29 type  2   force =    -0.09385184   -0.86113660 -169.10095440
     atom   30 type  2   force =     0.09385184   -0.86113660 -169.10095440
     atom   31 type  1   force =    -0.52452117    0.62555646  -64.83165191
     atom   32 type  1   force =     0.52452117    0.62555646  -64.83165191
     atom   33 type  2   force =    -0.00000000    1.17718013 -168.64253760
     atom   34 type  2   force =     0.00000000    0.68023925 -173.86048735
     atom   35 type  1   force =    -0.56059634   -0.36569680  -61.10756735
     atom   36 type  1   force =     0.56059634   -0.36569680  -61.10756735
     atom   37 type  1   force =     0.00000000   -1.71837178  -91.90850439
     atom   38 type  1   force =    -0.00000000    0.15666453  -91.28139881
     atom   39 type  1   force =    -0.00000000   -1.02769232  -94.50055383
     atom   40 type  1   force =     0.00000000    0.12902146  -99.23810705
     atom   41 type  3   force =     0.00000000    2.90340496   16.51275645
     atom   42 type  3   force =    -0.00000000    2.90340496  -16.51275645
     atom   43 type  3   force =     0.00000000   -0.73367501   18.20026756
     atom   44 type  3   force =     0.00000000   -0.73367501  -18.20026756
     atom   45 type  3   force =     0.00000000    1.85704412   16.98604811
     atom   46 type  3   force =     0.00000000    1.85704412  -16.98604811
     The core correction contribution to forces
     atom    1 type  1   force =    -0.00000000    0.01666065   -0.00065759
     atom    2 type  1   force =     0.00000000    0.00009812   -0.01045214
     atom    3 type  1   force =     0.00000000    0.01425695   -0.00034629
     atom    4 type  1   force =     0.00000000   -0.00510974    0.00876266
     atom    5 type  2   force =     0.00000000    0.00000000    0.00000000
     atom    6 type  2   force =     0.00000000    0.00000000    0.00000000
     atom    7 type  1   force =    -0.00047292   -0.00050415   -0.00001917
     atom    8 type  1   force =     0.00047292   -0.00050415   -0.00001917
     atom    9 type  2   force =     0.00000000    0.00000000    0.00000000
     atom   10 type  2   force =     0.00000000    0.00000000    0.00000000
     atom   11 type  1   force =    -0.00098052    0.00028768    0.00125385
     atom   12 type  1   force =     0.00098052    0.00028768    0.00125385
     atom   13 type  1   force =     0.00000000   -0.00008458    0.00014809
     atom   14 type  1   force =     0.00000000    0.00072246    0.00002955
     atom   15 type  1   force =     0.00000000   -0.00031759   -0.00006840
     atom   16 type  1   force =    -0.00000000    0.00013735   -0.00305507
     atom   17 type  2   force =     0.00000000    0.00000000    0.00000000
     atom   18 type  2   force =     0.00000000    0.00000000    0.00000000
     atom   19 type  1   force =    -0.00015231   -0.00033197   -0.00000193
     atom   20 type  1   force =     0.00015231   -0.00033197   -0.00000193
     atom   21 type  2   force =     0.00000000    0.00000000    0.00000000
     atom   22 type  2   force =     0.00000000    0.00000000    0.00000000
     atom   23 type  1   force =    -0.00023104    0.00022353   -0.00000202
     atom   24 type  1   force =     0.00023104    0.00022353   -0.00000202
     atom   25 type  1   force =    -0.00000000   -0.00031761    0.00006612
     atom   26 type  1   force =     0.00000000    0.00013745    0.00305298
     atom   27 type  1   force =     0.00000000   -0.00008451   -0.00015028
     atom   28 type  1   force =    -0.00000000    0.00072263   -0.00003174
     atom   29 type  2   force =     0.00000000    0.00000000    0.00000000
     atom   30 type  2   force =     0.00000000    0.00000000    0.00000000
     atom   31 type  1   force =    -0.00047282   -0.00050404    0.00001732
     atom   32 type  1   force =     0.00047282   -0.00050404    0.00001732
     atom   33 type  2   force =     0.00000000    0.00000000    0.00000000
     atom   34 type  2   force =     0.00000000    0.00000000    0.00000000
     atom   35 type  1   force =    -0.00098050    0.00028758   -0.00125561
     atom   36 type  1   force =     0.00098050    0.00028758   -0.00125561
     atom   37 type  1   force =     0.00000000    0.01425911    0.00034239
     atom   38 type  1   force =    -0.00000000   -0.00511062   -0.00876841
     atom   39 type  1   force =    -0.00000000    0.01666131    0.00065478
     atom   40 type  1   force =     0.00000000    0.00009803    0.01045040
     atom   41 type  3   force =     0.00000000    0.00000000    0.00000000
     atom   42 type  3   force =     0.00000000    0.00000000    0.00000000
     atom   43 type  3   force =     0.00000000    0.00000000    0.00000000
     atom   44 type  3   force =     0.00000000    0.00000000    0.00000000
     atom   45 type  3   force =     0.00000000    0.00000000    0.00000000
     atom   46 type  3   force =     0.00000000    0.00000000    0.00000000
     The Hubbard contrib.    to forces
     atom    1 type  1   force =     0.00000000    0.00000000    0.00000000
     atom    2 type  1   force =     0.00000000    0.00000000    0.00000000
     atom    3 type  1   force =     0.00000000    0.00000000    0.00000000
     atom    4 type  1   force =     0.00000000    0.00000000    0.00000000
     atom    5 type  2   force =     0.00000000    0.00000000    0.00000000
     atom    6 type  2   force =     0.00000000    0.00000000    0.00000000
     atom    7 type  1   force =     0.00000000    0.00000000    0.00000000
     atom    8 type  1   force =     0.00000000    0.00000000    0.00000000
     atom    9 type  2   force =     0.00000000    0.00000000    0.00000000
     atom   10 type  2   force =     0.00000000    0.00000000    0.00000000
     atom   11 type  1   force =     0.00000000    0.00000000    0.00000000
     atom   12 type  1   force =     0.00000000    0.00000000    0.00000000
     atom   13 type  1   force =     0.00000000    0.00000000    0.00000000
     atom   14 type  1   force =     0.00000000    0.00000000    0.00000000
     atom   15 type  1   force =     0.00000000    0.00000000    0.00000000
     atom   16 type  1   force =     0.00000000    0.00000000    0.00000000
     atom   17 type  2   force =     0.00000000    0.00000000    0.00000000
     atom   18 type  2   force =     0.00000000    0.00000000    0.00000000
     atom   19 type  1   force =     0.00000000    0.00000000    0.00000000
     atom   20 type  1   force =     0.00000000    0.00000000    0.00000000
     atom   21 type  2   force =     0.00000000    0.00000000    0.00000000
     atom   22 type  2   force =     0.00000000    0.00000000    0.00000000
     atom   23 type  1   force =     0.00000000    0.00000000    0.00000000
     atom   24 type  1   force =     0.00000000    0.00000000    0.00000000
     atom   25 type  1   force =     0.00000000    0.00000000    0.00000000
     atom   26 type  1   force =     0.00000000    0.00000000    0.00000000
     atom   27 type  1   force =     0.00000000    0.00000000    0.00000000
     atom   28 type  1   force =     0.00000000    0.00000000    0.00000000
     atom   29 type  2   force =     0.00000000    0.00000000    0.00000000
     atom   30 type  2   force =     0.00000000    0.00000000    0.00000000
     atom   31 type  1   force =     0.00000000    0.00000000    0.00000000
     atom   32 type  1   force =     0.00000000    0.00000000    0.00000000
     atom   33 type  2   force =     0.00000000    0.00000000    0.00000000
     atom   34 type  2   force =     0.00000000    0.00000000    0.00000000
     atom   35 type  1   force =     0.00000000    0.00000000    0.00000000
     atom   36 type  1   force =     0.00000000    0.00000000    0.00000000
     atom   37 type  1   force =     0.00000000    0.00000000    0.00000000
     atom   38 type  1   force =     0.00000000    0.00000000    0.00000000
     atom   39 type  1   force =     0.00000000    0.00000000    0.00000000
     atom   40 type  1   force =     0.00000000    0.00000000    0.00000000
     atom   41 type  3   force =     0.00000000    0.00000000    0.00000000
     atom   42 type  3   force =     0.00000000    0.00000000    0.00000000
     atom   43 type  3   force =     0.00000000    0.00000000    0.00000000
     atom   44 type  3   force =     0.00000000    0.00000000    0.00000000
     atom   45 type  3   force =     0.00000000    0.00000000    0.00000000
     atom   46 type  3   force =     0.00000000    0.00000000    0.00000000
     The SCF correction term to forces
     atom    1 type  1   force =     0.00000000   -0.00000057   -0.00000051
     atom    2 type  1   force =     0.00000000   -0.00000052   -0.00000064
     atom    3 type  1   force =     0.00000000    0.00000041   -0.00000084
     atom    4 type  1   force =     0.00000000    0.00000007   -0.00000076
     atom    5 type  2   force =    -0.00000090    0.00000057   -0.00000180
     atom    6 type  2   force =     0.00000090    0.00000057   -0.00000180
     atom    7 type  1   force =    -0.00000043    0.00000029   -0.00000095
     atom    8 type  1   force =     0.00000043    0.00000029   -0.00000095
     atom    9 type  2   force =     0.00000000   -0.00000015   -0.00000204
     atom   10 type  2   force =    -0.00000000   -0.00000077   -0.00000207
     atom   11 type  1   force =    -0.00000062   -0.00000061   -0.00000059
     atom   12 type  1   force =     0.00000062   -0.00000061   -0.00000059
     atom   13 type  1   force =     0.00000000   -0.00000024   -0.00000011
     atom   14 type  1   force =     0.00000000    0.00000008   -0.00000038
     atom   15 type  1   force =     0.00000000    0.00000054   -0.00000076
     atom   16 type  1   force =    -0.00000000    0.00000001   -0.00000087
     atom   17 type  2   force =    -0.00000000   -0.00000028    0.00000000
     atom   18 type  2   force =    -0.00000000   -0.00000006    0.00000000
     atom   19 type  1   force =    -0.00000066   -0.00000021    0.00000000
     atom   20 type  1   force =     0.00000066   -0.00000021    0.00000000
     atom   21 type  2   force =    -0.00000159   -0.00000001    0.00000000
     atom   22 type  2   force =     0.00000159   -0.00000001    0.00000000
     atom   23 type  1   force =    -0.00000071    0.00000042    0.00000000
     atom   24 type  1   force =     0.00000071    0.00000042    0.00000000
     atom   25 type  1   force =     0.00000000    0.00000054    0.00000077
     atom   26 type  1   force =     0.00000000    0.00000001    0.00000088
     atom   27 type  1   force =    -0.00000000   -0.00000024    0.00000011
     atom   28 type  1   force =     0.00000000    0.00000008    0.00000038
     atom   29 type  2   force =    -0.00000090    0.00000057    0.00000180
     atom   30 type  2   force =     0.00000090    0.00000057    0.00000180
     atom   31 type  1   force =    -0.00000043    0.00000029    0.00000096
     atom   32 type  1   force =     0.00000043    0.00000029    0.00000096
     atom   33 type  2   force =     0.00000000   -0.00000015    0.00000205
     atom   34 type  2   force =    -0.00000000   -0.00000077    0.00000208
     atom   35 type  1   force =    -0.00000062   -0.00000061    0.00000059
     atom   36 type  1   force =     0.00000062   -0.00000061    0.00000059
     atom   37 type  1   force =     0.00000000    0.00000041    0.00000084
     atom   38 type  1   force =     0.00000000    0.00000007    0.00000077
     atom   39 type  1   force =     0.00000000   -0.00000057    0.00000051
     atom   40 type  1   force =    -0.00000000   -0.00000052    0.00000064
     atom   41 type  3   force =     0.00000000    0.00000005   -0.00000001
     atom   42 type  3   force =    -0.00000000    0.00000005    0.00000001
     atom   43 type  3   force =     0.00000000    0.00000005   -0.00000013
     atom   44 type  3   force =    -0.00000000    0.00000004    0.00000011
     atom   45 type  3   force =     0.00000000   -0.00000002   -0.00000011
     atom   46 type  3   force =     0.00000000   -0.00000002    0.00000011

     Total force =     0.000359     Total SCF correction =     0.000008
     Energy error            =      1.3E-07 Ry
     Gradient error          =      9.7E-05 Ry/Bohr

     bfgs converged in  68 scf cycles and  65 bfgs steps
     (criteria: energy <  1.0E-04 Ry, force <  1.0E-04 Ry/Bohr)

     End of BFGS Geometry Optimization

     Final energy             =   -3435.2389356489 Ry

     File /storage/home/mgm6007/ixd4/Maria/Strain2_Files/RuO2-110-0-234/RuO2-110-0-234.bfgs deleted, as requested
Begin final coordinates

ATOMIC_POSITIONS (crystal)
O             0.0000000000        0.5377126701        0.2687103466
O             0.5000000000        0.4943663864        0.2719122669
O             0.0000000000       -0.0151378349        0.3003661900
O             0.5000000000       -0.0098422645        0.3042054664
Ru            0.2500565088       -0.0068533159        0.3589416695
Ru            0.7499434912       -0.0068533159        0.3589416695
O             0.2434744425        0.3022193570        0.3552531605
O             0.7565255575        0.3022193570        0.3552531605
Ru            0.0000000000        0.4937555887        0.3569835032
Ru            0.5000000000        0.4943775345        0.3498344246
O             0.2492552840        0.6832626907        0.3601385539
O             0.7507447160        0.6832626907        0.3601385539
O             0.0000000000       -0.0084831134        0.4111063773
O             0.5000000000       -0.0041519816        0.4120242016
O             0.0000000000        0.4825591468        0.4468080414
O             0.5000000000        0.4827565630        0.4423377866
Ru            0.0000000000       -0.0167858252        0.5000010000
Ru            0.5000000000       -0.0173057734        0.5000010000
O             0.2500973252        0.1701884235        0.5000010000
O             0.7499026748        0.1701884235        0.5000010000
Ru            0.2527767647        0.4820823278        0.5000010000
Ru            0.7472232353        0.4820823278        0.5000010000
O             0.2505445116        0.7950250967        0.5000010000
O             0.7494554884        0.7950250967        0.5000010000
O             0.0000000000        0.4825591468        0.5531929586
O             0.5000000000        0.4827565630        0.5576632134
O             0.0000000000       -0.0084831134        0.5888946227
O             0.5000000000       -0.0041519816        0.5879767984
Ru            0.2500565088       -0.0068533159        0.6410593305
Ru            0.7499434912       -0.0068533159        0.6410593305
O             0.2434744425        0.3022193570        0.6447478395
O             0.7565255575        0.3022193570        0.6447478395
Ru            0.0000000000        0.4937555887        0.6430174968
Ru            0.5000000000        0.4943775345        0.6501665754
O             0.2492552840        0.6832626907        0.6398624461
O             0.7507447160        0.6832626907        0.6398624461
O             0.0000000000       -0.0151378349        0.6996358100
O             0.5000000000       -0.0098422645        0.6957965336
O             0.0000000000        0.5377126701        0.7312906534
O             0.5000000000        0.4943663864        0.7280887331
H             0.0000000000        0.3995024826        0.2463426479
H             0.0000000000        0.3995024826        0.7536573521
H             0.5000000000        0.0296626563        0.2614991386
H             0.5000000000        0.0296626563        0.7385008614
H             0.0000000000        0.8496316538        0.2755567097
H             0.0000000000        0.8496316538        0.7244432903
End final coordinates



     Writing all to output data dir /storage/home/mgm6007/ixd4/Maria/Strain2_Files/RuO2-110-0-234/RuO2-110-0-234.save/
 
     init_run     :    163.97s CPU    522.22s WALL (       1 calls)
     electrons    :  67465.79s CPU 180170.43s WALL (      68 calls)
     update_pot   :    115.09s CPU    115.28s WALL (      67 calls)
     forces       :    107.62s CPU    108.52s WALL (      68 calls)

     Called by init_run:
     wfcinit      :      0.48s CPU      0.50s WALL (       1 calls)
     potinit      :     88.38s CPU    365.89s WALL (       1 calls)
     hinit0       :     74.66s CPU    155.24s WALL (       1 calls)

     Called by electrons:
     c_bands      :   1773.42s CPU   1778.28s WALL (    1340 calls)
     sum_band     :    360.12s CPU    361.25s WALL (    1340 calls)
     v_of_rho     :    141.58s CPU    142.26s WALL (    1383 calls)
     newd         :     97.61s CPU     97.84s WALL (    1383 calls)
     PAW_pot      :    168.09s CPU    168.38s WALL (    1450 calls)
     mix_rho      :   1065.59s CPU   1067.83s WALL (    1340 calls)

     Called by c_bands:
     init_us_2    :     17.32s CPU     17.39s WALL (    2748 calls)
     init_us_2:cp :     17.30s CPU     17.38s WALL (    2748 calls)
     cegterg      :   1710.30s CPU   1714.78s WALL (    1340 calls)

     Called by *egterg:
     cdiaghg      :    216.26s CPU    216.58s WALL (    4449 calls)
     h_psi        :    853.43s CPU    855.62s WALL (    4542 calls)
     s_psi        :    132.57s CPU    132.94s WALL (    4542 calls)
     g_psi        :      4.36s CPU      4.37s WALL (    3201 calls)

     Called by h_psi:
     h_psi:calbec :    133.04s CPU    133.25s WALL (    4542 calls)
     vloc_psi     :    574.70s CPU    576.27s WALL (    4542 calls)
     add_vuspsi   :    134.80s CPU    135.17s WALL (    4542 calls)

     General routines
     calbec       :    206.57s CPU    206.98s WALL (    6221 calls)
     fft          :  13732.23s CPU  13739.72s WALL (   18683 calls)
     ffts         :    383.77s CPU    384.37s WALL (  586304 calls)
     fftw         :    527.75s CPU    528.89s WALL ( 1594458 calls)
     interpolate  :  13621.21s CPU  13628.56s WALL (    1383 calls)
 
     Parallel routines
 
     Environ routines
 
     PWSCF        :     19h47m CPU   2d 4h46m WALL

 
   This run was terminated on:  16:46:26  29Jul2023            

=------------------------------------------------------------------------------=
   JOB DONE.
=------------------------------------------------------------------------------=
