
     Program PWSCF v.7.2 starts on 19Jul2023 at 11:38:18 
        Git branch: heads/qe-7.2
        Last git commit: b4c5e8deeb7d1863e7553a87b45f8d22c21926a5
        Last git commit date: Mon Mar 27 16:12:09 2023 +0000
        Last git commit subject: Merge branch 'merge_fix_hubbard' into 'develop'

     This program is part of the open-source Quantum ESPRESSO suite
     for quantum simulation of materials; please cite
         "P. Giannozzi et al., J. Phys.:Condens. Matter 21 395502 (2009);
         "P. Giannozzi et al., J. Phys.:Condens. Matter 29 465901 (2017);
         "P. Giannozzi et al., J. Chem. Phys. 152 154105 (2020);
          URL http://www.quantum-espresso.org", 
     in publications or presentations arising from this work. More details at
     http://www.quantum-espresso.org/quote

     Parallel version (MPI), running on    20 processors

     MPI processes distributed on     1 nodes
     99445 MiB available memory on the printing compute node when the environment starts
 
     Reading input from RuO2-110-0-023.in

     Current dimensions of program PWSCF are:
     Max number of different atomic species (ntypx) = 10
     Max number of k-points (npk) =  40000
     Max angular momentum in pseudopotentials (lmaxx) =  4
 
     Reading input from environ.in:
     * Environ restarting
     * setting up water environment
     * using electronic solvent mode
     * setting boundary derivatives method to SCCS default
     
     file O.pbe-n-kjpaw_psl.0.1.UPF: wavefunction(s)  2P renormalized
     Message from routine setup:
     using ibrav=0 with symmetry is DISCOURAGED, use correct ibrav instead
 
     R & G space division:  proc/nbgrp/npool/nimage =      20
     Subspace diagonalization in iterative solution of the eigenvalue problem:
     one sub-group per band group will be used
     scalapack distributed-memory algorithm (size of sub-group:  2*  2 procs)

 
     Parallelization info
     --------------------
     sticks:   dense  smooth     PW     G-vecs:    dense   smooth      PW
     Min         282     113     29                56190    14217    1913
     Max         283     114     30                56201    14227    1932
     Sum        5657    2263    593              1123933   284439   38425
 
     Using Slab Decomposition
 


     bravais-lattice index     =            0
     lattice parameter (alat)  =      12.1041  a.u.
     unit-cell volume          =    5954.5483 (a.u.)^3
     number of atoms/cell      =           46
     number of atomic types    =            3
     number of electrons       =       366.00
     number of Kohn-Sham states=          220
     kinetic-energy cutoff     =      50.0000  Ry
     charge density cutoff     =     500.0000  Ry
     scf convergence threshold =      1.0E-09
     mixing beta               =       0.7000
     number of iterations used =            8  local-TF  mixing
     energy convergence thresh.=      1.0E-04
     force convergence thresh. =      1.0E-04
     Exchange-correlation= PBE
                           (   1   4   3   4   0   0   0)
     nstep                     =          200


     ================================================================================
 
                                  Environ Setup Summary

     ================================================================================
 
     Please cite

          O. Andreussi, I. Dabo and N. Marzari, J. Chem. Phys. 136, 064102 (2012)

     in publications or presentations arising from this work.

     ================================================================================
 
     Parameters
     ==========

     compensation onset threshold      =               0.1000E+00
     static permittivity               =                    78.30
     surface tension in input (dyn/cm) =                    47.90
     surface tension in internal units =               0.6153E-04
     external pressure in input (GPa)  =                    -0.36
     external pressure in inter. units =              -0.2447E-04

     Solvent Boundary
     ================

     solvent mode                      =               electronic
     derivatives method                =                    chain
     numerical core for derivatives    =                      fft
     switching function adopted        =                     SCCS
     density limit for vacuum region   =               0.5000E-02
     density limit for bulk solvent    =               0.1000E-03

     Electrostatic Setup
     ===================

     electrostatic problem to solve    =              generalized
     numerical solver adopted          =                       cg
     type of auxiliary density adopted =                     none
     numerical core for poisson        =                      fft
     type of pbc corrections           =                parabolic
     numerical core for corrections    =                      1da

     ================================================================================
 

     celldm(1)=  12.104053  celldm(2)=   0.000000  celldm(3)=   0.000000
     celldm(4)=   0.000000  celldm(5)=   0.000000  celldm(6)=   0.000000

     crystal axes: (cart. coord. in units of alat)
               a(1) = (   1.000000   0.000000   0.000000 )  
               a(2) = (   0.000000   0.971735   0.000000 )  
               a(3) = (   0.000000   0.000000   3.455479 )  

     reciprocal axes: (cart. coord. in units 2 pi/alat)
               b(1) = (  1.000000  0.000000  0.000000 )  
               b(2) = (  0.000000  1.029087  0.000000 )  
               b(3) = (  0.000000  0.000000  0.289395 )  


     PseudoPot. # 1 for O  read from file:
     /gpfs/group/ixd4/default/Simon/pseudopotentials/materialscloud/SSSP_1.3.0_PBE_efficiency/O.pbe-n-kjpaw_psl.0.1.UPF
     MD5 check sum: 0234752ac141de4415c5fc33072bef88
     Pseudo is Projector augmented-wave + core cor, Zval =  6.0
     Generated using "atomic" code by A. Dal Corso  v.5.0.99 svn rev. 10869
     Shape of augmentation charge: BESSEL
     Using radial grid of 1095 points,  4 beta functions with: 
                l(1) =   0
                l(2) =   0
                l(3) =   1
                l(4) =   1
     Q(r) pseudized with 0 coefficients 


     PseudoPot. # 2 for Ru read from file:
     /gpfs/group/ixd4/default/Simon/pseudopotentials/materialscloud/SSSP_1.3.0_PBE_efficiency/Ru_ONCV_PBE-1.0.oncvpsp.upf
     MD5 check sum: be037bb81c227cfb9b1461a9f099f4bd
     Pseudo is Norm-conserving, Zval = 16.0
     Generated using ONCVPSP code by D. R. Hamann
     Using radial grid of 1458 points,  6 beta functions with: 
                l(1) =   0
                l(2) =   0
                l(3) =   1
                l(4) =   1
                l(5) =   2
                l(6) =   2

     PseudoPot. # 3 for H  read from file:
     /gpfs/group/ixd4/default/Simon/pseudopotentials/materialscloud/SSSP_1.3.0_PBE_efficiency/H.pbe-rrkjus_psl.1.0.0.UPF
     MD5 check sum: f52b6d4d1c606e5624b1dc7b2218f220
     Pseudo is Ultrasoft, Zval =  1.0
     Generated using "atomic" code by A. Dal Corso  v.5.1
     Using radial grid of  929 points,  2 beta functions with: 
                l(1) =   0
                l(2) =   0
     Q(r) pseudized with 0 coefficients 


     atomic species   valence    mass     pseudopotential
        O              6.00    15.99940     O ( 1.00)
        Ru            16.00   101.07000     Ru( 1.00)
        H              1.00     1.00794     H ( 1.00)

      2 Sym. Ops. (no inversion) found



   Cartesian axes

     site n.     atom                  positions (alat units)
         1           O   tau(   1) = (   0.0095961   0.4536689   0.9360806  )
         2           O   tau(   2) = (   0.4787982   0.4924697   0.9439541  )
         3           O   tau(   3) = (  -0.0005788   0.0228620   1.0380636  )
         4           O   tau(   4) = (   0.4974791   0.0065435   1.0482883  )
         5           Ru  tau(   5) = (   0.2484288   0.0059727   1.2402892  )
         6           Ru  tau(   6) = (   0.7485200   0.0059910   1.2382683  )
         7           O   tau(   7) = (   0.2494297   0.2998283   1.2469946  )
         8           O   tau(   8) = (   0.7495331   0.3029309   1.2372416  )
         9           Ru  tau(   9) = (   0.0006175   0.4922854   1.2383576  )
        10           Ru  tau(  10) = (   0.5019678   0.4890838   1.2123886  )
        11           O   tau(  11) = (   0.2403398   0.6853043   1.2317544  )
        12           O   tau(  12) = (   0.7568469   0.6806607   1.2267287  )
        13           O   tau(  13) = (  -0.0035407   0.0075017   1.4206889  )
        14           O   tau(  14) = (   0.5004330   0.0012244   1.4240209  )
        15           O   tau(  15) = (   0.0000340   0.4958552   1.5421757  )
        16           O   tau(  16) = (   0.4968156   0.4972469   1.5222811  )
        17           Ru  tau(  17) = (  -0.0054690   0.0085956   1.7277432  )
        18           Ru  tau(  18) = (   0.5014647   0.0098555   1.7277432  )
        19           O   tau(  19) = (   0.2500734   0.1943395   1.7277432  )
        20           O   tau(  20) = (   0.7459068   0.2019062   1.7277432  )
        21           Ru  tau(  21) = (   0.2556967   0.4963200   1.7277432  )
        22           Ru  tau(  22) = (   0.7435491   0.4957806   1.7277432  )
        23           O   tau(  23) = (   0.2482611   0.7967362   1.7277432  )
        24           O   tau(  24) = (   0.7479799   0.7886994   1.7277432  )
        25           O   tau(  25) = (   0.0000340   0.4958552   1.9133073  )
        26           O   tau(  26) = (   0.4968156   0.4972469   1.9332019  )
        27           O   tau(  27) = (  -0.0035407   0.0075017   2.0347940  )
        28           O   tau(  28) = (   0.5004330   0.0012244   2.0314620  )
        29           Ru  tau(  29) = (   0.2484288   0.0059727   2.2151937  )
        30           Ru  tau(  30) = (   0.7485200   0.0059910   2.2172147  )
        31           O   tau(  31) = (   0.2494297   0.2998283   2.2084883  )
        32           O   tau(  32) = (   0.7495331   0.3029309   2.2182414  )
        33           Ru  tau(  33) = (   0.0006175   0.4922854   2.2171254  )
        34           Ru  tau(  34) = (   0.5019678   0.4890838   2.2430944  )
        35           O   tau(  35) = (   0.2403398   0.6853043   2.2237286  )
        36           O   tau(  36) = (   0.7568469   0.6806607   2.2287542  )
        37           O   tau(  37) = (  -0.0005788   0.0228620   2.4174228  )
        38           O   tau(  38) = (   0.4974791   0.0065435   2.4071981  )
        39           O   tau(  39) = (   0.0095961   0.4536689   2.5194023  )
        40           O   tau(  40) = (   0.4787982   0.4924697   2.5115288  )
        41           H   tau(  41) = (   0.1534402   0.4764974   0.8862459  )
        42           H   tau(  42) = (   0.1534402   0.4764974   2.5692336  )
        43           H   tau(  43) = (  -0.0002061   0.1487834   0.9594232  )
        44           H   tau(  44) = (  -0.0002061   0.1487834   2.4960563  )
        45           H   tau(  45) = (   0.4959492  -0.0367026   0.9027794  )
        46           H   tau(  46) = (   0.4959492  -0.0367026   2.5527001  )

     number of k points=     2  Marzari-Vanderbilt smearing, width (Ry)=  0.0300
                       cart. coord. in units 2pi/alat
        k(    1) = (   0.2500000   0.2572717   0.0000000), wk =   1.0000000
        k(    2) = (  -0.2500000   0.2572717   0.0000000), wk =   1.0000000

     Dense  grid:  1123933 G-vectors     FFT dimensions: (  90,  90, 300)

     Smooth grid:   284439 G-vectors     FFT dimensions: (  60,  54, 192)

     Estimated max dynamical RAM per process >     184.85 MB

     Estimated total dynamical RAM >       3.61 GB

     Check: negative core charge=   -0.000001

     Initial potential from superposition of free atoms

     starting charge     365.9933, renormalised to     366.0000

     add environment contribution to local potential
     Polarization accuracy = 3.5E-12, # of iterations =  25

     negative rho (up, down):  3.228E-05 0.000E+00
     Starting wfcs are  238 randomized atomic wfcs
     Checking if some PAW data can be deallocated... 

     total cpu time spent up to now is     1020.7 secs

     per-process dynamical memory:   157.3 Mb

     Self-consistent Calculation

     iteration #  1     ecut=    50.00 Ry     beta= 0.70
     Davidson diagonalization with overlap
     ethr =  1.00E-02,  avg # of iterations =  2.0

     total cpu time spent up to now is     1332.9 secs

     total energy              =   -3432.96070865 Ry
     estimated scf accuracy    <       9.51681055 Ry
     electrostatic embedding   =      -0.00182087 Ry
     cavitation energy         =       0.02005522 Ry
     PV energy                 =      -0.08571802 Ry
     correction to one-el term =     215.90584734 Ry

     iteration #  2     ecut=    50.00 Ry     beta= 0.70
     Davidson diagonalization with overlap
     ethr =  2.60E-03,  avg # of iterations =  2.0

     total cpu time spent up to now is     1660.2 secs

     total energy              =   -3435.05600039 Ry
     estimated scf accuracy    <       2.22050430 Ry
     electrostatic embedding   =      -0.00278081 Ry
     cavitation energy         =       0.01998532 Ry
     PV energy                 =      -0.08629896 Ry
     correction to one-el term =     215.90873796 Ry

     iteration #  3     ecut=    50.00 Ry     beta= 0.70
     Davidson diagonalization with overlap
     ethr =  6.07E-04,  avg # of iterations =  1.0

     total cpu time spent up to now is     1975.6 secs

     total energy              =   -3435.23975266 Ry
     estimated scf accuracy    <       0.67596182 Ry
     electrostatic embedding   =      -0.00316748 Ry
     cavitation energy         =       0.02005960 Ry
     PV energy                 =      -0.08639475 Ry
     correction to one-el term =     215.90974718 Ry

     iteration #  4     ecut=    50.00 Ry     beta= 0.70
     Davidson diagonalization with overlap
     ethr =  1.85E-04,  avg # of iterations =  1.0

     total cpu time spent up to now is     2310.2 secs

     total energy              =   -3435.29288981 Ry
     estimated scf accuracy    <       0.46030762 Ry
     electrostatic embedding   =      -0.00325291 Ry
     cavitation energy         =       0.02024016 Ry
     PV energy                 =      -0.08592691 Ry
     correction to one-el term =     215.90965865 Ry

     iteration #  5     ecut=    50.00 Ry     beta= 0.70
     Davidson diagonalization with overlap
     ethr =  1.26E-04,  avg # of iterations =  1.0

     total cpu time spent up to now is     2623.9 secs

     total energy              =   -3435.28374059 Ry
     estimated scf accuracy    <       0.21187141 Ry
     electrostatic embedding   =      -0.00340742 Ry
     cavitation energy         =       0.02058294 Ry
     PV energy                 =      -0.08520388 Ry
     correction to one-el term =     215.90965521 Ry

     iteration #  6     ecut=    50.00 Ry     beta= 0.70
     Davidson diagonalization with overlap
     ethr =  5.79E-05,  avg # of iterations =  1.0

     total cpu time spent up to now is     2965.5 secs

     total energy              =   -3435.28195315 Ry
     estimated scf accuracy    <       0.12539614 Ry
     electrostatic embedding   =      -0.00344868 Ry
     cavitation energy         =       0.02111831 Ry
     PV energy                 =      -0.08402902 Ry
     correction to one-el term =     215.90921284 Ry

     iteration #  7     ecut=    50.00 Ry     beta= 0.70
     Davidson diagonalization with overlap
     ethr =  3.43E-05,  avg # of iterations =  1.0

     add environment contribution to local potential
     Polarization accuracy = 7.3E-12, # of iterations =  43

     total cpu time spent up to now is     3312.6 secs

     total energy              =   -3435.27616214 Ry
     estimated scf accuracy    <       0.08213827 Ry
     electrostatic embedding   =      -0.00337555 Ry
     cavitation energy         =       0.02140012 Ry
     PV energy                 =      -0.08333323 Ry
     correction to one-el term =     215.90871574 Ry

     iteration #  8     ecut=    50.00 Ry     beta= 0.70
     Davidson diagonalization with overlap
     ethr =  2.24E-05,  avg # of iterations =  2.0

     add environment contribution to local potential
     Polarization accuracy = 6.1E-12, # of iterations =  44

     total cpu time spent up to now is     3626.1 secs

     total energy              =   -3435.31267350 Ry
     estimated scf accuracy    <       0.07645069 Ry
     electrostatic embedding   =      -0.04475631 Ry
     cavitation energy         =       0.02194404 Ry
     PV energy                 =      -0.08205223 Ry
     correction to one-el term =     181.54612230 Ry

     iteration #  9     ecut=    50.00 Ry     beta= 0.70
     Davidson diagonalization with overlap
     ethr =  2.09E-05,  avg # of iterations =  1.0

     add environment contribution to local potential
     Polarization accuracy = 3.8E-12, # of iterations =  48

     total cpu time spent up to now is     3925.4 secs

     total energy              =   -3435.30938532 Ry
     estimated scf accuracy    <       0.02767197 Ry
     electrostatic embedding   =      -0.04608553 Ry
     cavitation energy         =       0.02197672 Ry
     PV energy                 =      -0.08192930 Ry
     correction to one-el term =     181.31556194 Ry

     iteration # 10     ecut=    50.00 Ry     beta= 0.70
     Davidson diagonalization with overlap
     ethr =  7.56E-06,  avg # of iterations = 13.0

     add environment contribution to local potential
     Polarization accuracy = 8.7E-12, # of iterations =  48

     total cpu time spent up to now is     4251.2 secs

     total energy              =   -3435.31035311 Ry
     estimated scf accuracy    <       0.01695758 Ry
     electrostatic embedding   =      -0.05169186 Ry
     cavitation energy         =       0.02207615 Ry
     PV energy                 =      -0.08152545 Ry
     correction to one-el term =     180.47997933 Ry

     iteration # 11     ecut=    50.00 Ry     beta= 0.70
     Davidson diagonalization with overlap
     ethr =  4.63E-06,  avg # of iterations =  2.0

     negative rho (up, down):  1.658E-03 0.000E+00

     add environment contribution to local potential
     Polarization accuracy = 3.1E-12, # of iterations =  51

     total cpu time spent up to now is     4530.8 secs

     total energy              =   -3435.31085796 Ry
     estimated scf accuracy    <       0.01772999 Ry
     electrostatic embedding   =      -0.05670904 Ry
     cavitation energy         =       0.02201128 Ry
     PV energy                 =      -0.08139116 Ry
     correction to one-el term =     180.45174969 Ry

     iteration # 12     ecut=    50.00 Ry     beta= 0.70
     Davidson diagonalization with overlap
     ethr =  4.63E-06,  avg # of iterations =  5.0

     negative rho (up, down):  4.011E-03 0.000E+00

     add environment contribution to local potential
     Polarization accuracy = 8.2E-12, # of iterations =  51

     total cpu time spent up to now is     4852.7 secs

     total energy              =   -3435.31334930 Ry
     estimated scf accuracy    <       0.01855965 Ry
     electrostatic embedding   =      -0.06484860 Ry
     cavitation energy         =       0.02191398 Ry
     PV energy                 =      -0.08118933 Ry
     correction to one-el term =     180.68342167 Ry

     iteration # 13     ecut=    50.00 Ry     beta= 0.70
     Davidson diagonalization with overlap
     ethr =  4.63E-06,  avg # of iterations =  2.0

     negative rho (up, down):  9.706E-04 0.000E+00

     add environment contribution to local potential
     Polarization accuracy = 6.2E-12, # of iterations =  49

     total cpu time spent up to now is     5203.5 secs

     total energy              =   -3435.31376853 Ry
     estimated scf accuracy    <       0.00831543 Ry
     electrostatic embedding   =      -0.06869638 Ry
     cavitation energy         =       0.02185992 Ry
     PV energy                 =      -0.08116624 Ry
     correction to one-el term =     181.07746742 Ry

     iteration # 14     ecut=    50.00 Ry     beta= 0.70
     Davidson diagonalization with overlap
     ethr =  2.27E-06,  avg # of iterations =  5.0

     negative rho (up, down):  2.904E-05 0.000E+00

     add environment contribution to local potential
     Polarization accuracy = 6.9E-12, # of iterations =  48

     total cpu time spent up to now is     5583.2 secs

     total energy              =   -3435.31429924 Ry
     estimated scf accuracy    <       0.00379588 Ry
     electrostatic embedding   =      -0.06614349 Ry
     cavitation energy         =       0.02172597 Ry
     PV energy                 =      -0.08139269 Ry
     correction to one-el term =     182.18150697 Ry

     iteration # 15     ecut=    50.00 Ry     beta= 0.70
     Davidson diagonalization with overlap
     ethr =  1.04E-06,  avg # of iterations =  6.0

     negative rho (up, down):  1.820E-06 0.000E+00

     add environment contribution to local potential
     Polarization accuracy = 5.9E-12, # of iterations =  47

     total cpu time spent up to now is     5941.2 secs

     total energy              =   -3435.31480965 Ry
     estimated scf accuracy    <       0.00158274 Ry
     electrostatic embedding   =      -0.06421158 Ry
     cavitation energy         =       0.02164090 Ry
     PV energy                 =      -0.08155627 Ry
     correction to one-el term =     183.06746966 Ry

     iteration # 16     ecut=    50.00 Ry     beta= 0.70
     Davidson diagonalization with overlap
     ethr =  4.32E-07,  avg # of iterations =  7.0

     negative rho (up, down):  9.764E-06 0.000E+00

     add environment contribution to local potential
     Polarization accuracy = 5.1E-12, # of iterations =  45

     total cpu time spent up to now is     6260.2 secs

     total energy              =   -3435.31521530 Ry
     estimated scf accuracy    <       0.00094255 Ry
     electrostatic embedding   =      -0.06248715 Ry
     cavitation energy         =       0.02153591 Ry
     PV energy                 =      -0.08173239 Ry
     correction to one-el term =     184.52165297 Ry

     iteration # 17     ecut=    50.00 Ry     beta= 0.70
     Davidson diagonalization with overlap
     ethr =  2.58E-07,  avg # of iterations =  7.0

     negative rho (up, down):  3.358E-05 0.000E+00

     add environment contribution to local potential
     Polarization accuracy = 5.9E-12, # of iterations =  46

     total cpu time spent up to now is     6562.5 secs

     total energy              =   -3435.31538946 Ry
     estimated scf accuracy    <       0.00012096 Ry
     electrostatic embedding   =      -0.06021320 Ry
     cavitation energy         =       0.02148656 Ry
     PV energy                 =      -0.08185171 Ry
     correction to one-el term =     185.16649470 Ry

     iteration # 18     ecut=    50.00 Ry     beta= 0.70
     Davidson diagonalization with overlap
     ethr =  3.30E-08,  avg # of iterations =  6.0

     negative rho (up, down):  8.183E-04 0.000E+00

     add environment contribution to local potential
     Polarization accuracy = 9.1E-12, # of iterations =  46

     total cpu time spent up to now is     6817.5 secs

     total energy              =   -3435.31541792 Ry
     estimated scf accuracy    <       0.00006867 Ry
     electrostatic embedding   =      -0.05972451 Ry
     cavitation energy         =       0.02149948 Ry
     PV energy                 =      -0.08182658 Ry
     correction to one-el term =     185.31982626 Ry

     iteration # 19     ecut=    50.00 Ry     beta= 0.70
     Davidson diagonalization with overlap
     ethr =  1.88E-08,  avg # of iterations =  3.0

     negative rho (up, down):  1.824E-03 0.000E+00

     add environment contribution to local potential
     Polarization accuracy = 7.4E-12, # of iterations =  45

     total cpu time spent up to now is     7090.4 secs

     total energy              =   -3435.31546007 Ry
     estimated scf accuracy    <       0.00004791 Ry
     electrostatic embedding   =      -0.05857944 Ry
     cavitation energy         =       0.02150654 Ry
     PV energy                 =      -0.08182583 Ry
     correction to one-el term =     185.52584004 Ry

     iteration # 20     ecut=    50.00 Ry     beta= 0.70
     Davidson diagonalization with overlap
     ethr =  1.31E-08,  avg # of iterations =  5.0

     negative rho (up, down):  9.858E-04 0.000E+00

     add environment contribution to local potential
     Polarization accuracy = 7.6E-12, # of iterations =  46

     total cpu time spent up to now is     7405.3 secs

     total energy              =   -3435.31545286 Ry
     estimated scf accuracy    <       0.00002636 Ry
     electrostatic embedding   =      -0.05840037 Ry
     cavitation energy         =       0.02150983 Ry
     PV energy                 =      -0.08180662 Ry
     correction to one-el term =     185.61188709 Ry

     iteration # 21     ecut=    50.00 Ry     beta= 0.70
     Davidson diagonalization with overlap
     ethr =  7.20E-09,  avg # of iterations =  5.0

     negative rho (up, down):  6.365E-04 0.000E+00

     add environment contribution to local potential
     Polarization accuracy = 8.9E-12, # of iterations =  45

     total cpu time spent up to now is     7782.2 secs

     total energy              =   -3435.31545786 Ry
     estimated scf accuracy    <       0.00001241 Ry
     electrostatic embedding   =      -0.05780061 Ry
     cavitation energy         =       0.02152480 Ry
     PV energy                 =      -0.08178060 Ry
     correction to one-el term =     185.62196616 Ry

     iteration # 22     ecut=    50.00 Ry     beta= 0.70
     Davidson diagonalization with overlap
     ethr =  3.39E-09,  avg # of iterations =  3.0

     negative rho (up, down):  2.553E-04 0.000E+00

     add environment contribution to local potential
     Polarization accuracy = 5.0E-12, # of iterations =  47

     total cpu time spent up to now is     8084.1 secs

     total energy              =   -3435.31545981 Ry
     estimated scf accuracy    <       0.00000415 Ry
     electrostatic embedding   =      -0.05738138 Ry
     cavitation energy         =       0.02152871 Ry
     PV energy                 =      -0.08177257 Ry
     correction to one-el term =     185.64125492 Ry

     iteration # 23     ecut=    50.00 Ry     beta= 0.70
     Davidson diagonalization with overlap
     ethr =  1.13E-09,  avg # of iterations =  3.0

     negative rho (up, down):  9.430E-05 0.000E+00

     add environment contribution to local potential
     Polarization accuracy = 4.6E-12, # of iterations =  47

     total cpu time spent up to now is     8395.9 secs

     total energy              =   -3435.31546025 Ry
     estimated scf accuracy    <       0.00000402 Ry
     electrostatic embedding   =      -0.05721741 Ry
     cavitation energy         =       0.02153126 Ry
     PV energy                 =      -0.08176877 Ry
     correction to one-el term =     185.62256681 Ry

     iteration # 24     ecut=    50.00 Ry     beta= 0.70
     Davidson diagonalization with overlap
     ethr =  1.10E-09,  avg # of iterations =  2.0

     negative rho (up, down):  8.125E-05 0.000E+00

     add environment contribution to local potential
     Polarization accuracy = 4.6E-12, # of iterations =  47

     total cpu time spent up to now is     8761.0 secs

     total energy              =   -3435.31546025 Ry
     estimated scf accuracy    <       0.00000216 Ry
     electrostatic embedding   =      -0.05707874 Ry
     cavitation energy         =       0.02153263 Ry
     PV energy                 =      -0.08176683 Ry
     correction to one-el term =     185.61096513 Ry

     iteration # 25     ecut=    50.00 Ry     beta= 0.70
     Davidson diagonalization with overlap
     ethr =  5.90E-10,  avg # of iterations =  3.0

     negative rho (up, down):  4.006E-05 0.000E+00

     add environment contribution to local potential
     Polarization accuracy = 9.2E-12, # of iterations =  46

     total cpu time spent up to now is     9061.7 secs

     total energy              =   -3435.31546056 Ry
     estimated scf accuracy    <       0.00000105 Ry
     electrostatic embedding   =      -0.05683715 Ry
     cavitation energy         =       0.02153345 Ry
     PV energy                 =      -0.08176703 Ry
     correction to one-el term =     185.62788194 Ry

     iteration # 26     ecut=    50.00 Ry     beta= 0.70
     Davidson diagonalization with overlap
     ethr =  2.88E-10,  avg # of iterations =  3.0

     negative rho (up, down):  5.432E-05 0.000E+00

     add environment contribution to local potential
     Polarization accuracy = 4.4E-12, # of iterations =  47

     total cpu time spent up to now is     9372.3 secs

     total energy              =   -3435.31546102 Ry
     estimated scf accuracy    <       0.00000037 Ry
     electrostatic embedding   =      -0.05672269 Ry
     cavitation energy         =       0.02153350 Ry
     PV energy                 =      -0.08176950 Ry
     correction to one-el term =     185.62430736 Ry

     iteration # 27     ecut=    50.00 Ry     beta= 0.70
     Davidson diagonalization with overlap
     ethr =  1.00E-10,  avg # of iterations =  2.0

     negative rho (up, down):  7.572E-05 0.000E+00

     add environment contribution to local potential
     Polarization accuracy = 9.4E-12, # of iterations =  46

     total cpu time spent up to now is     9683.7 secs

     total energy              =   -3435.31546125 Ry
     estimated scf accuracy    <       0.00000019 Ry
     electrostatic embedding   =      -0.05673300 Ry
     cavitation energy         =       0.02153289 Ry
     PV energy                 =      -0.08177114 Ry
     correction to one-el term =     185.62850750 Ry

     iteration # 28     ecut=    50.00 Ry     beta= 0.70
     Davidson diagonalization with overlap
     ethr =  5.06E-11,  avg # of iterations =  2.0

     negative rho (up, down):  8.327E-05 0.000E+00

     add environment contribution to local potential
     Polarization accuracy = 8.1E-12, # of iterations =  46

     total cpu time spent up to now is    10020.9 secs

     total energy              =   -3435.31546161 Ry
     estimated scf accuracy    <       0.00000012 Ry
     electrostatic embedding   =      -0.05668810 Ry
     cavitation energy         =       0.02153252 Ry
     PV energy                 =      -0.08177284 Ry
     correction to one-el term =     185.63790569 Ry

     iteration # 29     ecut=    50.00 Ry     beta= 0.70
     Davidson diagonalization with overlap
     ethr =  3.32E-11,  avg # of iterations =  2.0

     negative rho (up, down):  1.265E-04 0.000E+00

     add environment contribution to local potential
     Polarization accuracy = 4.2E-12, # of iterations =  47

     total cpu time spent up to now is    10307.2 secs

     total energy              =   -3435.31546175 Ry
     estimated scf accuracy    <       0.00000010 Ry
     electrostatic embedding   =      -0.05667624 Ry
     cavitation energy         =       0.02153235 Ry
     PV energy                 =      -0.08177339 Ry
     correction to one-el term =     185.64081664 Ry

     iteration # 30     ecut=    50.00 Ry     beta= 0.70
     Davidson diagonalization with overlap
     ethr =  2.73E-11,  avg # of iterations =  1.0

     negative rho (up, down):  1.531E-04 0.000E+00

     add environment contribution to local potential
     Polarization accuracy = 8.7E-12, # of iterations =  45

     total cpu time spent up to now is    10584.5 secs

     total energy              =   -3435.31546216 Ry
     estimated scf accuracy    <       0.00000008 Ry
     electrostatic embedding   =      -0.05666548 Ry
     cavitation energy         =       0.02153178 Ry
     PV energy                 =      -0.08177475 Ry
     correction to one-el term =     185.65023996 Ry

     iteration # 31     ecut=    50.00 Ry     beta= 0.70
     Davidson diagonalization with overlap
     ethr =  2.17E-11,  avg # of iterations =  2.0

     negative rho (up, down):  1.575E-04 0.000E+00

     add environment contribution to local potential
     Polarization accuracy = 4.0E-12, # of iterations =  46

     total cpu time spent up to now is    10884.4 secs

     total energy              =   -3435.31546251 Ry
     estimated scf accuracy    <       0.00000007 Ry
     electrostatic embedding   =      -0.05665324 Ry
     cavitation energy         =       0.02153155 Ry
     PV energy                 =      -0.08177508 Ry
     correction to one-el term =     185.65560553 Ry

     iteration # 32     ecut=    50.00 Ry     beta= 0.70
     Davidson diagonalization with overlap
     ethr =  1.87E-11,  avg # of iterations =  1.0

     negative rho (up, down):  1.635E-04 0.000E+00

     add environment contribution to local potential
     Polarization accuracy = 8.3E-12, # of iterations =  46

     total cpu time spent up to now is    11214.1 secs

     total energy              =   -3435.31546262 Ry
     estimated scf accuracy    <       0.00000006 Ry
     electrostatic embedding   =      -0.05665435 Ry
     cavitation energy         =       0.02153152 Ry
     PV energy                 =      -0.08177491 Ry
     correction to one-el term =     185.65616523 Ry

     iteration # 33     ecut=    50.00 Ry     beta= 0.70
     Davidson diagonalization with overlap
     ethr =  1.68E-11,  avg # of iterations =  1.0

     negative rho (up, down):  1.644E-04 0.000E+00

     add environment contribution to local potential
     Polarization accuracy = 9.3E-12, # of iterations =  46

     total cpu time spent up to now is    11526.8 secs

     total energy              =   -3435.31546298 Ry
     estimated scf accuracy    <       0.00000006 Ry
     electrostatic embedding   =      -0.05665433 Ry
     cavitation energy         =       0.02153146 Ry
     PV energy                 =      -0.08177456 Ry
     correction to one-el term =     185.65693789 Ry

     iteration # 34     ecut=    50.00 Ry     beta= 0.70
     Davidson diagonalization with overlap
     ethr =  1.55E-11,  avg # of iterations =  2.0

     negative rho (up, down):  1.638E-04 0.000E+00

     add environment contribution to local potential
     Polarization accuracy = 4.2E-12, # of iterations =  47

     total cpu time spent up to now is    11899.8 secs

     total energy              =   -3435.31546341 Ry
     estimated scf accuracy    <       0.00000006 Ry
     electrostatic embedding   =      -0.05664987 Ry
     cavitation energy         =       0.02153142 Ry
     PV energy                 =      -0.08177442 Ry
     correction to one-el term =     185.65729978 Ry

     iteration # 35     ecut=    50.00 Ry     beta= 0.70
     Davidson diagonalization with overlap
     ethr =  1.55E-11,  avg # of iterations =  1.0

     negative rho (up, down):  1.562E-04 0.000E+00

     add environment contribution to local potential
     Polarization accuracy = 9.5E-12, # of iterations =  45

     total cpu time spent up to now is    12177.9 secs

     total energy              =   -3435.31546337 Ry
     estimated scf accuracy    <       0.00000005 Ry
     electrostatic embedding   =      -0.05664657 Ry
     cavitation energy         =       0.02153142 Ry
     PV energy                 =      -0.08177471 Ry
     correction to one-el term =     185.65747586 Ry

     iteration # 36     ecut=    50.00 Ry     beta= 0.70
     Davidson diagonalization with overlap
     ethr =  1.45E-11,  avg # of iterations =  2.0

     negative rho (up, down):  1.511E-04 0.000E+00

     add environment contribution to local potential
     Polarization accuracy = 9.4E-12, # of iterations =  45

     total cpu time spent up to now is    12436.6 secs

     total energy              =   -3435.31546533 Ry
     estimated scf accuracy    <       0.00000006 Ry
     electrostatic embedding   =      -0.05664523 Ry
     cavitation energy         =       0.02153144 Ry
     PV energy                 =      -0.08177378 Ry
     correction to one-el term =     185.65575446 Ry

     iteration # 37     ecut=    50.00 Ry     beta= 0.70
     Davidson diagonalization with overlap
     ethr =  1.45E-11,  avg # of iterations =  2.0

     negative rho (up, down):  1.446E-04 0.000E+00

     add environment contribution to local potential
     Polarization accuracy = 7.6E-12, # of iterations =  46

     total cpu time spent up to now is    12717.5 secs

     total energy              =   -3435.31546677 Ry
     estimated scf accuracy    <       0.00000005 Ry
     electrostatic embedding   =      -0.05663603 Ry
     cavitation energy         =       0.02153146 Ry
     PV energy                 =      -0.08177411 Ry
     correction to one-el term =     185.65550463 Ry

     iteration # 38     ecut=    50.00 Ry     beta= 0.70
     Davidson diagonalization with overlap
     ethr =  1.29E-11,  avg # of iterations =  5.0

     negative rho (up, down):  1.315E-04 0.000E+00

     add environment contribution to local potential
     Polarization accuracy = 4.3E-12, # of iterations =  47

     total cpu time spent up to now is    13057.3 secs

     total energy              =   -3435.31547025 Ry
     estimated scf accuracy    <       0.00000004 Ry
     electrostatic embedding   =      -0.05662511 Ry
     cavitation energy         =       0.02153148 Ry
     PV energy                 =      -0.08177442 Ry
     correction to one-el term =     185.65505902 Ry

     iteration # 39     ecut=    50.00 Ry     beta= 0.70
     Davidson diagonalization with overlap
     ethr =  1.10E-11,  avg # of iterations =  2.0

     negative rho (up, down):  1.346E-04 0.000E+00

     add environment contribution to local potential
     Polarization accuracy = 4.1E-12, # of iterations =  46

     total cpu time spent up to now is    13382.4 secs

     total energy              =   -3435.31546992 Ry
     estimated scf accuracy    <       0.00000003 Ry
     electrostatic embedding   =      -0.05663305 Ry
     cavitation energy         =       0.02153166 Ry
     PV energy                 =      -0.08177447 Ry
     correction to one-el term =     185.65280332 Ry

     iteration # 40     ecut=    50.00 Ry     beta= 0.70
     Davidson diagonalization with overlap
     ethr =  7.40E-12,  avg # of iterations =  2.5

     negative rho (up, down):  1.323E-04 0.000E+00

     add environment contribution to local potential
     Polarization accuracy = 8.5E-12, # of iterations =  46

     total cpu time spent up to now is    13711.7 secs

     total energy              =   -3435.31547386 Ry
     estimated scf accuracy    <       0.00000002 Ry
     electrostatic embedding   =      -0.05662610 Ry
     cavitation energy         =       0.02153164 Ry
     PV energy                 =      -0.08177460 Ry
     correction to one-el term =     185.65406510 Ry

     iteration # 41     ecut=    50.00 Ry     beta= 0.70
     Davidson diagonalization with overlap
     ethr =  5.57E-12,  avg # of iterations =  2.0

     negative rho (up, down):  1.302E-04 0.000E+00

     add environment contribution to local potential
     Polarization accuracy = 5.8E-12, # of iterations =  46

     total cpu time spent up to now is    13999.8 secs

     total energy              =   -3435.31547439 Ry
     estimated scf accuracy    <       0.00000002 Ry
     electrostatic embedding   =      -0.05663148 Ry
     cavitation energy         =       0.02153169 Ry
     PV energy                 =      -0.08177466 Ry
     correction to one-el term =     185.65361929 Ry

     iteration # 42     ecut=    50.00 Ry     beta= 0.70
     Davidson diagonalization with overlap
     ethr =  5.57E-12,  avg # of iterations =  4.0

     negative rho (up, down):  1.364E-04 0.000E+00

     add environment contribution to local potential
     Polarization accuracy = 8.7E-12, # of iterations =  45

     total cpu time spent up to now is    14333.9 secs

     total energy              =   -3435.31547692 Ry
     estimated scf accuracy    <       0.00000001 Ry
     electrostatic embedding   =      -0.05663800 Ry
     cavitation energy         =       0.02153176 Ry
     PV energy                 =      -0.08177470 Ry
     correction to one-el term =     185.65323549 Ry

     iteration # 43     ecut=    50.00 Ry     beta= 0.70
     Davidson diagonalization with overlap
     ethr =  3.78E-12,  avg # of iterations =  4.0

     negative rho (up, down):  1.410E-04 0.000E+00

     add environment contribution to local potential
     Polarization accuracy = 4.8E-12, # of iterations =  47

     total cpu time spent up to now is    14650.2 secs

     total energy              =   -3435.31547987 Ry
     estimated scf accuracy    <          5.1E-09 Ry
     electrostatic embedding   =      -0.05664901 Ry
     cavitation energy         =       0.02153173 Ry
     PV energy                 =      -0.08177435 Ry
     correction to one-el term =     185.65363819 Ry

     iteration # 44     ecut=    50.00 Ry     beta= 0.70
     Davidson diagonalization with overlap
     ethr =  1.40E-12,  avg # of iterations =  3.5

     negative rho (up, down):  1.493E-04 0.000E+00

     the potential shift due to the Gaussian-smeared nuclei is    -1.3136 ev

     total cpu time spent up to now is    14970.4 secs

     End of self-consistent calculation

          k = 0.2500 0.2573 0.0000 ( 35510 PWs)   bands (ev):

   -78.0571 -78.0453 -77.3815 -77.3704 -77.3598 -77.3484 -77.2970 -77.2858
   -77.2767 -77.2402 -77.1754 -77.0817 -48.6076 -48.5959 -47.8845 -47.8727
   -47.7555 -47.7444 -47.6885 -47.6768 -47.6320 -47.6206 -47.6148 -47.6036
   -47.5435 -47.4640 -47.4204 -47.3007 -47.2845 -47.2819 -47.2729 -47.2616
   -47.2257 -47.2003 -47.1891 -47.1788 -47.1676 -47.1533 -47.1426 -47.1415
   -47.1319 -47.1104 -47.0980 -47.0871 -47.0841 -47.0360 -47.0181 -46.9210
   -23.9368 -23.8730 -23.6163 -23.6007 -23.4646 -23.3002 -23.2570 -23.0984
   -23.0221 -22.9681 -22.9026 -22.8385 -22.7559 -22.7094 -22.6586 -22.6061
   -22.5350 -22.5216 -22.5081 -22.4625 -22.4438 -22.4095 -22.3422 -22.3319
   -22.1926 -22.1652 -21.7460 -21.6933 -12.3488 -12.0855 -11.7610 -11.7354
   -11.5731 -11.5363 -11.5096 -11.3745 -11.1561 -11.1167 -11.0032 -10.9290
   -10.8733 -10.7995 -10.7767 -10.7086 -10.6942 -10.6459 -10.5610 -10.5521
   -10.5384 -10.4626 -10.4283 -10.4264 -10.3176 -10.1948 -10.0743  -9.8765
    -9.7819  -9.7686  -9.5960  -9.5112  -9.4437  -9.3817  -9.3091  -9.2184
    -9.0843  -9.0572  -9.0371  -8.8960  -8.8671  -8.7423  -8.6834  -8.6056
    -8.5775  -8.5048  -8.4121  -8.3413  -8.3114  -8.2211  -8.1409  -8.1207
    -8.1183  -8.0836  -8.0642  -7.9333  -7.9299  -7.8486  -7.8404  -7.7472
    -7.7089  -7.6048  -7.5929  -7.4599  -7.3562  -7.3150  -7.2671  -7.0988
    -7.0322  -7.0188  -6.9098  -6.8030  -6.7904  -6.6557  -6.6346  -6.5813
    -6.5321  -6.5239  -6.4186  -6.2724  -6.2565  -6.0833  -6.0005  -5.9337
    -4.8989  -4.8603  -4.8419  -4.7309  -4.7140  -4.6563  -4.6227  -4.6053
    -4.5565  -4.5460  -4.5114  -4.4287  -4.4101  -4.3893  -4.3452  -4.3403
    -4.2545  -4.2098  -4.1986  -4.0949  -4.0363  -4.0037  -3.8189  -3.7937
    -3.5921  -3.5875  -3.5209  -3.3305  -3.2226  -3.0589  -3.0521  -3.0106
    -2.9812  -2.9463  -2.7778  -2.5790  -1.8280  -1.8163  -1.7188  -1.6087
    -1.4116  -1.2476  -1.1919  -0.5618  -0.4573  -0.3612  -0.3046  -0.2033
    -0.0936  -0.0444   0.0090   0.0395   0.2625   0.3826   0.5091   0.7386
     0.8446   0.8555   0.9731   1.1583

          k =-0.2500 0.2573 0.0000 ( 35510 PWs)   bands (ev):

   -78.0571 -78.0453 -77.3815 -77.3704 -77.3598 -77.3484 -77.2970 -77.2858
   -77.2767 -77.2402 -77.1754 -77.0817 -48.6076 -48.5959 -47.8845 -47.8727
   -47.7555 -47.7444 -47.6884 -47.6767 -47.6320 -47.6206 -47.6148 -47.6036
   -47.5435 -47.4640 -47.4204 -47.3010 -47.2858 -47.2810 -47.2726 -47.2610
   -47.2258 -47.2004 -47.1892 -47.1790 -47.1678 -47.1531 -47.1426 -47.1414
   -47.1319 -47.1103 -47.0980 -47.0871 -47.0841 -47.0359 -47.0182 -46.9210
   -23.9379 -23.8743 -23.6143 -23.5987 -23.4639 -23.2998 -23.2593 -23.0973
   -23.0223 -22.9686 -22.9049 -22.8367 -22.7581 -22.7122 -22.6507 -22.6026
   -22.5407 -22.5292 -22.5089 -22.4570 -22.4396 -22.4095 -22.3446 -22.3341
   -22.1910 -22.1642 -21.7460 -21.6938 -12.3477 -12.0834 -11.7361 -11.7151
   -11.5743 -11.5653 -11.5348 -11.3798 -11.1603 -11.1292 -10.9892 -10.9399
   -10.8799 -10.8088 -10.7766 -10.6991 -10.6798 -10.6308 -10.5832 -10.5404
   -10.5380 -10.4917 -10.4091 -10.4055 -10.3363 -10.2116 -10.0277  -9.9020
    -9.8202  -9.7006  -9.5715  -9.4823  -9.4542  -9.3702  -9.3383  -9.2018
    -9.1229  -9.0478  -9.0082  -8.9212  -8.8901  -8.7083  -8.6982  -8.6095
    -8.5775  -8.4693  -8.4487  -8.4160  -8.3382  -8.2162  -8.1804  -8.1019
    -8.0983  -8.0543  -8.0167  -7.9719  -7.9095  -7.8267  -7.8226  -7.7718
    -7.6865  -7.5901  -7.5760  -7.4973  -7.3628  -7.2769  -7.2512  -7.1234
    -7.0762  -6.9893  -6.9431  -6.7955  -6.7931  -6.7000  -6.6544  -6.5657
    -6.5016  -6.4879  -6.4137  -6.2985  -6.2628  -6.0565  -6.0256  -5.9322
    -4.9113  -4.8507  -4.8337  -4.7678  -4.7167  -4.6529  -4.6350  -4.5797
    -4.5284  -4.5208  -4.4955  -4.4548  -4.4260  -4.3717  -4.3506  -4.2899
    -4.2721  -4.2494  -4.1710  -4.0947  -4.0538  -3.9950  -3.8267  -3.8048
    -3.6163  -3.5814  -3.5021  -3.3298  -3.2208  -3.0719  -3.0644  -3.0064
    -2.9813  -2.9395  -2.7680  -2.5854  -1.8239  -1.8096  -1.7186  -1.6128
    -1.4111  -1.2475  -1.1905  -0.5554  -0.4618  -0.3602  -0.3008  -0.2134
    -0.0825  -0.0479  -0.0073   0.0426   0.2697   0.3824   0.5163   0.7381
     0.8281   0.8516   0.9734   1.1575

     the Fermi energy is    -3.8514 ev

!    total energy              =   -3435.31548052 Ry
     estimated scf accuracy    <          7.2E-10 Ry
     smearing contrib. (-TS)   =       0.07386750 Ry
     internal energy E=F+TS    =   -3435.38934802 Ry

     The total energy is F=E-TS. E is the sum of the following terms:
     one-electron contribution =  -25207.63317538 Ry
     hartree contribution      =   12588.66687678 Ry
     xc contribution           =    -447.89394077 Ry
     ewald contribution        =    9712.43696776 Ry
     one-center paw contrib.   =    -266.50313804 Ry
     electrostatic embedding   =      -0.05665050 Ry
     cavitation energy         =       0.02153167 Ry
     PV energy                 =      -0.08177427 Ry
     correction to one-el term =     185.65395473 Ry

     WARNING: you are using the parabolic pbc correction;
              the potential shift above must be added to 
              band and Fermi energies.

     convergence has been achieved in  44 iterations

     negative rho (up, down):  1.493E-04 0.000E+00

     Forces acting on atoms (cartesian axes, Ry/au):

     atom    1 type  1   force =     0.00443922    0.00062297   -0.00859911
     atom    2 type  1   force =    -0.00078890    0.00018548   -0.00963538
     atom    3 type  1   force =    -0.00007650   -0.06818621    0.03808494
     atom    4 type  1   force =    -0.00005576    0.00285922    0.00610670
     atom    5 type  2   force =     0.00259778    0.00177650   -0.00481181
     atom    6 type  2   force =    -0.00175124   -0.00085599   -0.00408808
     atom    7 type  1   force =    -0.00097094    0.02541604    0.00261857
     atom    8 type  1   force =     0.00179211    0.01605044    0.00274145
     atom    9 type  2   force =     0.00052856   -0.00261499   -0.00142082
     atom   10 type  2   force =    -0.00212805    0.00660048   -0.00027923
     atom   11 type  1   force =     0.00242686   -0.02641163    0.00014063
     atom   12 type  1   force =    -0.00151866   -0.01514141   -0.00032720
     atom   13 type  1   force =    -0.00085958   -0.00020021    0.00593212
     atom   14 type  1   force =     0.00073939   -0.00095869    0.00143996
     atom   15 type  1   force =    -0.00128257   -0.00017368   -0.00009670
     atom   16 type  1   force =     0.00139130    0.00017624    0.00434635
     atom   17 type  2   force =     0.01306020    0.00297687    0.00000000
     atom   18 type  2   force =    -0.01145003   -0.00079783    0.00000000
     atom   19 type  1   force =    -0.00459494   -0.01158459    0.00000000
     atom   20 type  1   force =     0.00235555   -0.03642468    0.00000000
     atom   21 type  2   force =    -0.00466342   -0.00240273    0.00000000
     atom   22 type  2   force =     0.00761244   -0.00208806    0.00000000
     atom   23 type  1   force =    -0.00269549    0.01430561    0.00000000
     atom   24 type  1   force =     0.00058457    0.03860894    0.00000000
     atom   25 type  1   force =    -0.00128257   -0.00017368    0.00009670
     atom   26 type  1   force =     0.00139130    0.00017624   -0.00434635
     atom   27 type  1   force =    -0.00085958   -0.00020021   -0.00593212
     atom   28 type  1   force =     0.00073939   -0.00095869   -0.00143996
     atom   29 type  2   force =     0.00259778    0.00177650    0.00481181
     atom   30 type  2   force =    -0.00175124   -0.00085599    0.00408808
     atom   31 type  1   force =    -0.00097094    0.02541604   -0.00261857
     atom   32 type  1   force =     0.00179211    0.01605044   -0.00274145
     atom   33 type  2   force =     0.00052856   -0.00261499    0.00142082
     atom   34 type  2   force =    -0.00212805    0.00660048    0.00027923
     atom   35 type  1   force =     0.00242686   -0.02641163   -0.00014063
     atom   36 type  1   force =    -0.00151866   -0.01514141    0.00032720
     atom   37 type  1   force =    -0.00007650   -0.06818621   -0.03808494
     atom   38 type  1   force =    -0.00005576    0.00285922   -0.00610670
     atom   39 type  1   force =     0.00443922    0.00062297    0.00859911
     atom   40 type  1   force =    -0.00078890    0.00018548    0.00963538
     atom   41 type  3   force =    -0.00446034   -0.00025530    0.00117418
     atom   42 type  3   force =    -0.00446034   -0.00025530   -0.00117418
     atom   43 type  3   force =    -0.00008626    0.06140094   -0.03837961
     atom   44 type  3   force =    -0.00008626    0.06140094    0.03837961
     atom   45 type  3   force =    -0.00004084   -0.00158697   -0.00676767
     atom   46 type  3   force =    -0.00004084   -0.00158697    0.00676767
     The non-local contrib.  to forces
     atom    1 type  1   force =     1.69875548    0.29109565    0.41219180
     atom    2 type  1   force =     0.03036928   -0.01091647    1.21135382
     atom    3 type  1   force =     0.00898836    1.42094806    0.04884019
     atom    4 type  1   force =    -0.02429180   -0.56427819   -0.83771692
     atom    5 type  2   force =    -0.01637911   -0.00076650    0.04432840
     atom    6 type  2   force =     0.01514188   -0.00084495    0.04296780
     atom    7 type  1   force =     0.05526548    0.00744636   -0.12093893
     atom    8 type  1   force =    -0.12742929    0.03315745   -0.04711114
     atom    9 type  2   force =     0.00987421    0.00108377    0.03657221
     atom   10 type  2   force =    -0.01041514    0.00980708   -0.04500236
     atom   11 type  1   force =    -0.03926198   -0.00792300    0.00415305
     atom   12 type  1   force =    -0.02316639   -0.05048259    0.05725866
     atom   13 type  1   force =    -0.01799036   -0.02293682   -0.04434913
     atom   14 type  1   force =     0.01395408    0.07096234   -0.02189407
     atom   15 type  1   force =    -0.01362582   -0.03498268   -0.02408479
     atom   16 type  1   force =    -0.00571383    0.00434746    0.24672665
     atom   17 type  2   force =     0.00183097    0.00434538    0.00000000
     atom   18 type  2   force =    -0.00711479   -0.00473217    0.00000000
     atom   19 type  1   force =     0.05492245    0.01891964    0.00000000
     atom   20 type  1   force =    -0.04319936   -0.03995919    0.00000000
     atom   21 type  2   force =     0.00351836   -0.00159866    0.00000000
     atom   22 type  2   force =    -0.00205888   -0.00201100    0.00000000
     atom   23 type  1   force =     0.02090859   -0.03328438    0.00000000
     atom   24 type  1   force =    -0.01046825    0.03151734    0.00000000
     atom   25 type  1   force =    -0.01362582   -0.03498268    0.02408479
     atom   26 type  1   force =    -0.00571383    0.00434746   -0.24672665
     atom   27 type  1   force =    -0.01799036   -0.02293682    0.04434913
     atom   28 type  1   force =     0.01395408    0.07096234    0.02189407
     atom   29 type  2   force =    -0.01637911   -0.00076650   -0.04432840
     atom   30 type  2   force =     0.01514188   -0.00084495   -0.04296780
     atom   31 type  1   force =     0.05526548    0.00744636    0.12093893
     atom   32 type  1   force =    -0.12742929    0.03315745    0.04711114
     atom   33 type  2   force =     0.00987421    0.00108377   -0.03657221
     atom   34 type  2   force =    -0.01041514    0.00980708    0.04500236
     atom   35 type  1   force =    -0.03926198   -0.00792300   -0.00415305
     atom   36 type  1   force =    -0.02316639   -0.05048259   -0.05725866
     atom   37 type  1   force =     0.00898836    1.42094806   -0.04884019
     atom   38 type  1   force =    -0.02429180   -0.56427819    0.83771692
     atom   39 type  1   force =     1.69875548    0.29109565   -0.41219180
     atom   40 type  1   force =     0.03036928   -0.01091647   -1.21135382
     atom   41 type  3   force =    -0.09621465   -0.01537604    0.03586275
     atom   42 type  3   force =    -0.09621465   -0.01537604   -0.03586275
     atom   43 type  3   force =    -0.00009188   -0.10019270    0.06430519
     atom   44 type  3   force =    -0.00009188   -0.10019270   -0.06430519
     atom   45 type  3   force =     0.00105319    0.03156350    0.10912099
     atom   46 type  3   force =     0.00105319    0.03156350   -0.10912099
     The ionic contribution  to forces
     atom    1 type  1   force =    -3.38612158   -0.17749356  -94.66669556
     atom    2 type  1   force =     0.11818493    0.35876432  -99.53947923
     atom    3 type  1   force =    -0.19662493   -3.48392700  -91.41521252
     atom    4 type  1   force =     0.21597662    0.66151390  -89.92212711
     atom    5 type  2   force =     0.19599145   -1.13909009 -167.25236410
     atom    6 type  2   force =    -0.21202057   -1.29736758 -168.54963923
     atom    7 type  1   force =     0.50072738   -0.02825440  -59.87379530
     atom    8 type  1   force =    -0.10431339   -0.46694106  -62.09347263
     atom    9 type  2   force =    -0.89001857    1.45798618 -165.58144357
     atom   10 type  2   force =     0.83145244    1.16180333 -171.73429301
     atom   11 type  1   force =     0.77631732    0.21295376  -63.48638047
     atom   12 type  1   force =    -0.38339180    0.81785875  -64.81784312
     atom   13 type  1   force =     0.07633084   -0.17041611  -37.04430502
     atom   14 type  1   force =    -0.05752609   -0.56381013  -37.19341284
     atom   15 type  1   force =    -0.07088744    0.10591955  -24.68945936
     atom   16 type  1   force =     0.15606859    0.31468569  -27.56889767
     atom   17 type  2   force =     0.35024923    0.42648424   -0.00044982
     atom   18 type  2   force =    -0.32234355    0.28661317   -0.00045874
     atom   19 type  1   force =    -0.32376540    1.32594436   -0.00008267
     atom   20 type  1   force =     0.24853319    0.73296989   -0.00007942
     atom   21 type  2   force =     0.88429454   -0.14283995   -0.00026583
     atom   22 type  2   force =    -1.11902092   -0.16694867   -0.00025501
     atom   23 type  1   force =    -0.09511813   -1.22957657   -0.00008136
     atom   24 type  1   force =     0.01209896   -0.65992638   -0.00007870
     atom   25 type  1   force =    -0.07088716    0.10591800   24.68924739
     atom   26 type  1   force =     0.15607608    0.31468669   27.56876913
     atom   27 type  1   force =     0.07633435   -0.17041495   37.04460080
     atom   28 type  1   force =    -0.05752882   -0.56381946   37.19372200
     atom   29 type  2   force =     0.19600281   -1.13908306  167.25264610
     atom   30 type  2   force =    -0.21203132   -1.29736040  168.54992005
     atom   31 type  1   force =     0.50072948   -0.02828626   59.87385769
     atom   32 type  1   force =    -0.10431435   -0.46696865   62.09353877
     atom   33 type  2   force =    -0.89003095    1.45798937  165.58157074
     atom   34 type  2   force =     0.83145852    1.16180033  171.73444555
     atom   35 type  1   force =     0.77631725    0.21298484   63.48644117
     atom   36 type  1   force =    -0.38339090    0.81788492   64.81790820
     atom   37 type  1   force =    -0.19662692   -3.48418505   91.41528791
     atom   38 type  1   force =     0.21598148    0.66164544   89.92192092
     atom   39 type  1   force =    -3.38619185   -0.17749826   94.66681459
     atom   40 type  1   force =     0.11818835    0.35876426   99.53954867
     atom   41 type  3   force =     2.66412990    0.55033180  -16.18276186
     atom   42 type  3   force =     2.66420033    0.55034277   16.18276313
     atom   43 type  3   force =    -0.06049986    2.30294247  -17.01830781
     atom   44 type  3   force =    -0.06049888    2.30317995   17.01830858
     atom   45 type  3   force =     0.00875692   -0.90381352  -18.11655792
     atom   46 type  3   force =     0.00875242   -0.90394689   18.11688853
     The local contribution  to forces
     atom    1 type  1   force =     1.63065046   -0.06716982   94.20312218
     atom    2 type  1   force =    -0.09137866   -0.37028470   98.27582096
     atom    3 type  1   force =     0.17218856    1.97488115   91.40162029
     atom    4 type  1   force =    -0.17876203   -0.07354484   90.86414109
     atom    5 type  2   force =    -0.21073124    1.13758824  167.25037602
     atom    6 type  2   force =     0.22987148    1.29205190  168.52467148
     atom    7 type  1   force =    -0.55991964    0.05757437   60.00046102
     atom    8 type  1   force =     0.23604817    0.46616634   62.12911543
     atom    9 type  2   force =     0.85200837   -1.44638869  165.49538915
     atom   10 type  2   force =    -0.79077904   -1.17222513  171.74821473
     atom   11 type  1   force =    -0.74763743   -0.24245693   63.48385473
     atom   12 type  1   force =     0.41761273   -0.79844138   64.74051043
     atom   13 type  1   force =    -0.06152703    0.19142463   37.09385308
     atom   14 type  1   force =     0.04663158    0.49291395   37.22362301
     atom   15 type  1   force =     0.08151515   -0.07104509   24.70984080
     atom   16 type  1   force =    -0.14735796   -0.31884349   27.32807373
     atom   17 type  2   force =    -0.34082867   -0.42849312   -0.00580077
     atom   18 type  2   force =     0.31992404   -0.28268717   -0.00580483
     atom   19 type  1   force =     0.26400273   -1.35545586   -0.00241212
     atom   20 type  1   force =    -0.20258031   -0.72940860   -0.00243791
     atom   21 type  2   force =    -0.89443181    0.14230792   -0.00597185
     atom   22 type  2   force =     1.13082185    0.16719050   -0.00601896
     atom   23 type  1   force =     0.07073162    1.27596710   -0.00241792
     atom   24 type  1   force =    -0.00015506    0.66684911   -0.00244129
     atom   25 type  1   force =     0.08151684   -0.07104853  -24.71159642
     atom   26 type  1   force =    -0.14734663   -0.31885821  -27.32981398
     atom   27 type  1   force =    -0.06152816    0.19142879  -37.09563007
     atom   28 type  1   force =     0.04663318    0.49291009  -37.22537797
     atom   29 type  2   force =    -0.21071976    1.13759619 -167.25641444
     atom   30 type  2   force =     0.22986115    1.29206593 -168.53069071
     atom   31 type  1   force =    -0.55990781    0.05759703  -60.00287547
     atom   32 type  1   force =     0.23603321    0.46618577  -62.13154909
     atom   33 type  2   force =     0.85202423   -1.44644433 -165.50121346
     atom   34 type  2   force =    -0.79082019   -1.17221603 -171.75389408
     atom   35 type  1   force =    -0.74760845   -0.24248598  -63.48628616
     atom   36 type  1   force =     0.41758302   -0.79846388  -64.74294927
     atom   37 type  1   force =     0.17219171    1.97502390  -91.40540515
     atom   38 type  1   force =    -0.17876498   -0.07360468  -90.86783569
     atom   39 type  1   force =     1.63068463   -0.06720129  -94.20470833
     atom   40 type  1   force =    -0.09143089   -0.37027462  -98.27721720
     atom   41 type  3   force =    -2.58393099   -0.53185080   16.15250133
     atom   42 type  3   force =    -2.58393099   -0.53185080  -16.15250133
     atom   43 type  3   force =     0.05586040   -2.13994760   16.92142460
     atom   44 type  3   force =     0.05586040   -2.13994760  -16.92142460
     atom   45 type  3   force =    -0.00666407    0.87871235   18.05536046
     atom   46 type  3   force =    -0.00666407    0.87871235  -18.05536046
     The core correction contribution to forces
     atom    1 type  1   force =    -0.01704159   -0.00297020   -0.00439889
     atom    2 type  1   force =    -0.00007686    0.00008650   -0.01001928
     atom    3 type  1   force =    -0.00010171   -0.01316802   -0.00151954
     atom    4 type  1   force =     0.00025530    0.00561184    0.00798647
     atom    5 type  2   force =     0.00000000    0.00000000    0.00000000
     atom    6 type  2   force =     0.00000000    0.00000000    0.00000000
     atom    7 type  1   force =    -0.00083103   -0.00090098    0.00120066
     atom    8 type  1   force =     0.00154480   -0.00087290    0.00048543
     atom    9 type  2   force =     0.00000000    0.00000000    0.00000000
     atom   10 type  2   force =     0.00000000    0.00000000    0.00000000
     atom   11 type  1   force =     0.00011034    0.00099404   -0.00000192
     atom   12 type  1   force =     0.00052593    0.00108233   -0.00057284
     atom   13 type  1   force =     0.00015225    0.00030242    0.00026237
     atom   14 type  1   force =    -0.00011677   -0.00080017    0.00023673
     atom   15 type  1   force =     0.00020937    0.00045370   -0.00001990
     atom   16 type  1   force =     0.00002709   -0.00015611   -0.00338923
     atom   17 type  2   force =     0.00000000    0.00000000    0.00000000
     atom   18 type  2   force =     0.00000000    0.00000000    0.00000000
     atom   19 type  1   force =    -0.00052537   -0.00002054   -0.00000192
     atom   20 type  1   force =     0.00038966    0.00107777   -0.00000206
     atom   21 type  2   force =     0.00000000    0.00000000    0.00000000
     atom   22 type  2   force =     0.00000000    0.00000000    0.00000000
     atom   23 type  1   force =    -0.00020132    0.00014445   -0.00000187
     atom   24 type  1   force =     0.00009645   -0.00101677   -0.00000202
     atom   25 type  1   force =     0.00020931    0.00045387    0.00001769
     atom   26 type  1   force =     0.00002717   -0.00015621    0.00338718
     atom   27 type  1   force =     0.00015224    0.00030242   -0.00026455
     atom   28 type  1   force =    -0.00011675   -0.00080033   -0.00023889
     atom   29 type  2   force =     0.00000000    0.00000000    0.00000000
     atom   30 type  2   force =     0.00000000    0.00000000    0.00000000
     atom   31 type  1   force =    -0.00083103   -0.00090095   -0.00120232
     atom   32 type  1   force =     0.00154477   -0.00087279   -0.00048715
     atom   33 type  2   force =     0.00000000    0.00000000    0.00000000
     atom   34 type  2   force =     0.00000000    0.00000000    0.00000000
     atom   35 type  1   force =     0.00011045    0.00099398    0.00000001
     atom   36 type  1   force =     0.00052585    0.00108221    0.00057101
     atom   37 type  1   force =    -0.00010164   -0.01316992    0.00151580
     atom   38 type  1   force =     0.00025527    0.00561279   -0.00799203
     atom   39 type  1   force =    -0.01704235   -0.00297026    0.00439646
     atom   40 type  1   force =    -0.00007712    0.00008661    0.01001749
     atom   41 type  3   force =     0.00000000    0.00000000    0.00000000
     atom   42 type  3   force =     0.00000000    0.00000000    0.00000000
     atom   43 type  3   force =     0.00000000    0.00000000    0.00000000
     atom   44 type  3   force =     0.00000000    0.00000000    0.00000000
     atom   45 type  3   force =     0.00000000    0.00000000    0.00000000
     atom   46 type  3   force =     0.00000000    0.00000000    0.00000000
     The Hubbard contrib.    to forces
     atom    1 type  1   force =     0.00000000    0.00000000    0.00000000
     atom    2 type  1   force =     0.00000000    0.00000000    0.00000000
     atom    3 type  1   force =     0.00000000    0.00000000    0.00000000
     atom    4 type  1   force =     0.00000000    0.00000000    0.00000000
     atom    5 type  2   force =     0.00000000    0.00000000    0.00000000
     atom    6 type  2   force =     0.00000000    0.00000000    0.00000000
     atom    7 type  1   force =     0.00000000    0.00000000    0.00000000
     atom    8 type  1   force =     0.00000000    0.00000000    0.00000000
     atom    9 type  2   force =     0.00000000    0.00000000    0.00000000
     atom   10 type  2   force =     0.00000000    0.00000000    0.00000000
     atom   11 type  1   force =     0.00000000    0.00000000    0.00000000
     atom   12 type  1   force =     0.00000000    0.00000000    0.00000000
     atom   13 type  1   force =     0.00000000    0.00000000    0.00000000
     atom   14 type  1   force =     0.00000000    0.00000000    0.00000000
     atom   15 type  1   force =     0.00000000    0.00000000    0.00000000
     atom   16 type  1   force =     0.00000000    0.00000000    0.00000000
     atom   17 type  2   force =     0.00000000    0.00000000    0.00000000
     atom   18 type  2   force =     0.00000000    0.00000000    0.00000000
     atom   19 type  1   force =     0.00000000    0.00000000    0.00000000
     atom   20 type  1   force =     0.00000000    0.00000000    0.00000000
     atom   21 type  2   force =     0.00000000    0.00000000    0.00000000
     atom   22 type  2   force =     0.00000000    0.00000000    0.00000000
     atom   23 type  1   force =     0.00000000    0.00000000    0.00000000
     atom   24 type  1   force =     0.00000000    0.00000000    0.00000000
     atom   25 type  1   force =     0.00000000    0.00000000    0.00000000
     atom   26 type  1   force =     0.00000000    0.00000000    0.00000000
     atom   27 type  1   force =     0.00000000    0.00000000    0.00000000
     atom   28 type  1   force =     0.00000000    0.00000000    0.00000000
     atom   29 type  2   force =     0.00000000    0.00000000    0.00000000
     atom   30 type  2   force =     0.00000000    0.00000000    0.00000000
     atom   31 type  1   force =     0.00000000    0.00000000    0.00000000
     atom   32 type  1   force =     0.00000000    0.00000000    0.00000000
     atom   33 type  2   force =     0.00000000    0.00000000    0.00000000
     atom   34 type  2   force =     0.00000000    0.00000000    0.00000000
     atom   35 type  1   force =     0.00000000    0.00000000    0.00000000
     atom   36 type  1   force =     0.00000000    0.00000000    0.00000000
     atom   37 type  1   force =     0.00000000    0.00000000    0.00000000
     atom   38 type  1   force =     0.00000000    0.00000000    0.00000000
     atom   39 type  1   force =     0.00000000    0.00000000    0.00000000
     atom   40 type  1   force =     0.00000000    0.00000000    0.00000000
     atom   41 type  3   force =     0.00000000    0.00000000    0.00000000
     atom   42 type  3   force =     0.00000000    0.00000000    0.00000000
     atom   43 type  3   force =     0.00000000    0.00000000    0.00000000
     atom   44 type  3   force =     0.00000000    0.00000000    0.00000000
     atom   45 type  3   force =     0.00000000    0.00000000    0.00000000
     atom   46 type  3   force =     0.00000000    0.00000000    0.00000000
     The SCF correction term to forces
     atom    1 type  1   force =    -0.00000274    0.00000231   -0.00000941
     atom    2 type  1   force =    -0.00000007   -0.00000104   -0.00001395
     atom    3 type  1   force =    -0.00000190   -0.00000044   -0.00001297
     atom    4 type  1   force =     0.00000184    0.00000036   -0.00001922
     atom    5 type  2   force =    -0.00000845   -0.00000070   -0.00003449
     atom    6 type  2   force =     0.00000877   -0.00000059   -0.00003082
     atom    7 type  1   force =    -0.00000322    0.00001228   -0.00001396
     atom    8 type  1   force =     0.00000346    0.00000732   -0.00001393
     atom    9 type  2   force =    -0.00000038    0.00000088   -0.00003497
     atom   10 type  2   force =    -0.00000136   -0.00000024   -0.00005549
     atom   11 type  1   force =    -0.00000381   -0.00001246   -0.00001391
     atom   12 type  1   force =     0.00000399   -0.00000731   -0.00001373
     atom   13 type  1   force =    -0.00000365   -0.00000004   -0.00000369
     atom   14 type  1   force =     0.00000352   -0.00000031   -0.00000774
     atom   15 type  1   force =     0.00000312   -0.00000005   -0.00000395
     atom   16 type  1   force =    -0.00000290   -0.00000022   -0.00000406
     atom   17 type  2   force =     0.00000135   -0.00000043    0.00001469
     atom   18 type  2   force =    -0.00000048   -0.00000050    0.00001475
     atom   19 type  1   force =    -0.00000692    0.00000457    0.00000539
     atom   20 type  1   force =     0.00000676    0.00000091    0.00000541
     atom   21 type  2   force =    -0.00001153    0.00000037    0.00001450
     atom   22 type  2   force =     0.00001087    0.00000046    0.00001454
     atom   23 type  1   force =    -0.00000676   -0.00000459    0.00000542
     atom   24 type  1   force =     0.00000667   -0.00000089    0.00000545
     atom   25 type  1   force =     0.00000310   -0.00000002    0.00001308
     atom   26 type  1   force =    -0.00000288   -0.00000020    0.00001275
     atom   27 type  1   force =    -0.00000372   -0.00000008    0.00001019
     atom   28 type  1   force =     0.00000359   -0.00000034    0.00001433
     atom   29 type  2   force =    -0.00000838   -0.00000084    0.00003855
     atom   30 type  2   force =     0.00000870   -0.00000074    0.00003472
     atom   31 type  1   force =    -0.00000324    0.00001216    0.00001576
     atom   32 type  1   force =     0.00000346    0.00000719    0.00001548
     atom   33 type  2   force =    -0.00000050    0.00000104    0.00003896
     atom   34 type  2   force =    -0.00000123   -0.00000011    0.00005790
     atom   35 type  1   force =    -0.00000384   -0.00001230    0.00001532
     atom   36 type  1   force =     0.00000400   -0.00000714    0.00001501
     atom   37 type  1   force =    -0.00000196   -0.00000048    0.00001072
     atom   38 type  1   force =     0.00000190    0.00000031    0.00001705
     atom   39 type  1   force =    -0.00000275    0.00000233    0.00000651
     atom   40 type  1   force =    -0.00000005   -0.00000101    0.00001105
     atom   41 type  3   force =     0.00000031    0.00000013   -0.00000159
     atom   42 type  3   force =     0.00000029    0.00000013    0.00000109
     atom   43 type  3   force =    -0.00000010    0.00000070   -0.00000217
     atom   44 type  3   force =    -0.00000010    0.00000067    0.00000172
     atom   45 type  3   force =     0.00000001   -0.00000027   -0.00000264
     atom   46 type  3   force =     0.00000001   -0.00000026    0.00000211

     Total force =     0.175906     Total SCF correction =     0.000144

     BFGS Geometry Optimization
     Energy error            =      0.0E+00 Ry
     Gradient error          =      6.8E-02 Ry/Bohr

     number of scf cycles    =   1
     number of bfgs steps    =   0

     energy             new  =   -3435.3154805162 Ry

     new trust radius        =       0.0781013909 bohr
     new conv_thr            =       0.0000000010 Ry


ATOMIC_POSITIONS (crystal)
O             0.0099628924        0.4669175926        0.2706918658
O             0.4787330262        0.5068097743        0.2729456396
O            -0.0005851081        0.0177297692        0.3013214338
O             0.4974744915        0.0069768864        0.3035158616
Ru            0.2486434475        0.0062975003        0.3588190042
Ru            0.7483752861        0.0060925134        0.3582514454
O             0.2493495197        0.3107101711        0.3609371666
O             0.7496811859        0.3131067916        0.3581176174
Ru            0.0006611551        0.5063820904        0.3583410551
Ru            0.5017919569        0.5038708733        0.3508530406
O             0.2405402852        0.7029920888        0.3564674629
O             0.7567214722        0.6991715713        0.3550018783
O            -0.0036116706        0.0077029108        0.4112827232
O             0.5004941058        0.0011785411        0.4121395905
O            -0.0000719590        0.5102632381        0.4462962959
O             0.4969305805        0.5117251498        0.4406451096
Ru           -0.0043899625        0.0090987453        0.5000010000
Ru            0.5005187034        0.0100743313        0.5000010000
O             0.2496937864        0.1990072775        0.5000010000
O             0.7461013803        0.2046821608        0.5000010000
Ru            0.2553114581        0.5105520743        0.5000010000
Ru            0.7441780611        0.5100237001        0.5000010000
O             0.2480384255        0.8211269100        0.5000010000
O             0.7480281869        0.8149225843        0.5000010000
O            -0.0000719590        0.5102632381        0.5537047041
O             0.4969305805        0.5117251498        0.5593558904
O            -0.0036116706        0.0077029108        0.5887182768
O             0.5004941058        0.0011785411        0.5878614095
Ru            0.2486434475        0.0062975003        0.6411819958
Ru            0.7483752861        0.0060925134        0.6417495546
O             0.2493495197        0.3107101711        0.6390638334
O             0.7496811859        0.3131067916        0.6418833826
Ru            0.0006611551        0.5063820904        0.6416599449
Ru            0.5017919569        0.5038708733        0.6491479594
O             0.2405402852        0.7029920888        0.6435335371
O             0.7567214722        0.6991715713        0.6449991217
O            -0.0005851081        0.0177297692        0.6986805662
O             0.4974744915        0.0069768864        0.6964861384
O             0.0099628924        0.4669175926        0.7293091342
O             0.4787330262        0.5068097743        0.7270553604
H             0.1530716701        0.4903354595        0.2565035966
H             0.1530716701        0.4903354595        0.7434964034
H            -0.0002132209        0.1583313064        0.2767350779
H            -0.0002132209        0.1583313064        0.7232649221
H             0.4959458641       -0.0379051203        0.2610984223
H             0.4959458641       -0.0379051203        0.7389015777



     Writing config-only to output data dir /storage/home/mgm6007/ixd4/Maria/Strain0_Files/RuO2-110-0-023/RuO2-110-0-023.save/
     NEW-OLD atomic charge density approx. for the potential

     Check: negative core charge=   -0.000001

     negative rho (up, down):  1.468E-04 0.000E+00

     add environment contribution to local potential
     Polarization accuracy = 4.1E-12, # of iterations =  45

     total cpu time spent up to now is    15285.6 secs

     per-process dynamical memory:   223.9 Mb

     Self-consistent Calculation

     iteration #  1     ecut=    50.00 Ry     beta= 0.70
     Davidson diagonalization with overlap
     ethr =  1.00E-06,  avg # of iterations =  6.0

     negative rho (up, down):  1.609E-04 0.000E+00

     add environment contribution to local potential
     Polarization accuracy = 1.0E-11, # of iterations =  47

     total cpu time spent up to now is    15610.4 secs

     total energy              =   -3435.32168349 Ry
     estimated scf accuracy    <       0.01352578 Ry
     electrostatic embedding   =      -0.05601264 Ry
     cavitation energy         =       0.02152009 Ry
     PV energy                 =      -0.08184227 Ry
     correction to one-el term =     185.67393062 Ry

     iteration #  2     ecut=    50.00 Ry     beta= 0.70
     Davidson diagonalization with overlap
     ethr =  3.70E-06,  avg # of iterations =  2.0

     negative rho (up, down):  1.210E-04 0.000E+00

     add environment contribution to local potential
     Polarization accuracy = 8.0E-12, # of iterations =  45

     total cpu time spent up to now is    15908.4 secs

     total energy              =   -3435.32230077 Ry
     estimated scf accuracy    <       0.00558851 Ry
     electrostatic embedding   =      -0.05633891 Ry
     cavitation energy         =       0.02151968 Ry
     PV energy                 =      -0.08183831 Ry
     correction to one-el term =     185.68819548 Ry

     iteration #  3     ecut=    50.00 Ry     beta= 0.70
     Davidson diagonalization with overlap
     ethr =  1.53E-06,  avg # of iterations =  1.0

     negative rho (up, down):  1.028E-04 0.000E+00

     add environment contribution to local potential
     Polarization accuracy = 9.8E-12, # of iterations =  46

     total cpu time spent up to now is    16238.5 secs

     total energy              =   -3435.32253584 Ry
     estimated scf accuracy    <       0.00591507 Ry
     electrostatic embedding   =      -0.05650904 Ry
     cavitation energy         =       0.02151644 Ry
     PV energy                 =      -0.08184687 Ry
     correction to one-el term =     185.62807341 Ry

     iteration #  4     ecut=    50.00 Ry     beta= 0.70
     Davidson diagonalization with overlap
     ethr =  1.53E-06,  avg # of iterations =  1.0

     negative rho (up, down):  8.306E-05 0.000E+00

     add environment contribution to local potential
     Polarization accuracy = 9.0E-12, # of iterations =  46

     total cpu time spent up to now is    16555.6 secs

     total energy              =   -3435.32275607 Ry
     estimated scf accuracy    <       0.00046100 Ry
     electrostatic embedding   =      -0.05675469 Ry
     cavitation energy         =       0.02151582 Ry
     PV energy                 =      -0.08184746 Ry
     correction to one-el term =     185.58370925 Ry

     iteration #  5     ecut=    50.00 Ry     beta= 0.70
     Davidson diagonalization with overlap
     ethr =  1.26E-07,  avg # of iterations =  2.0

     negative rho (up, down):  6.924E-05 0.000E+00

     add environment contribution to local potential
     Polarization accuracy = 2.9E-12, # of iterations =  46

     total cpu time spent up to now is    16909.9 secs

     total energy              =   -3435.32278547 Ry
     estimated scf accuracy    <       0.00025899 Ry
     electrostatic embedding   =      -0.05701355 Ry
     cavitation energy         =       0.02151585 Ry
     PV energy                 =      -0.08184678 Ry
     correction to one-el term =     185.52844040 Ry

     iteration #  6     ecut=    50.00 Ry     beta= 0.70
     Davidson diagonalization with overlap
     ethr =  7.08E-08,  avg # of iterations =  1.0

     negative rho (up, down):  6.236E-05 0.000E+00

     add environment contribution to local potential
     Polarization accuracy = 6.3E-12, # of iterations =  46

     total cpu time spent up to now is    17192.0 secs

     total energy              =   -3435.32280197 Ry
     estimated scf accuracy    <       0.00004022 Ry
     electrostatic embedding   =      -0.05716427 Ry
     cavitation energy         =       0.02151638 Ry
     PV energy                 =      -0.08184699 Ry
     correction to one-el term =     185.48367804 Ry

     iteration #  7     ecut=    50.00 Ry     beta= 0.70
     Davidson diagonalization with overlap
     ethr =  1.10E-08,  avg # of iterations =  1.5

     negative rho (up, down):  5.583E-05 0.000E+00

     add environment contribution to local potential
     Polarization accuracy = 2.6E-12, # of iterations =  47

     total cpu time spent up to now is    17505.2 secs

[...]
     atom    9 type  2   force =     0.00000000    0.00000000    0.00000000
     atom   10 type  2   force =     0.00000000    0.00000000    0.00000000
     atom   11 type  1   force =     0.00000000    0.00000000    0.00000000
     atom   12 type  1   force =     0.00000000    0.00000000    0.00000000
     atom   13 type  1   force =     0.00000000    0.00000000    0.00000000
     atom   14 type  1   force =     0.00000000    0.00000000    0.00000000
     atom   15 type  1   force =     0.00000000    0.00000000    0.00000000
     atom   16 type  1   force =     0.00000000    0.00000000    0.00000000
     atom   17 type  2   force =     0.00000000    0.00000000    0.00000000
     atom   18 type  2   force =     0.00000000    0.00000000    0.00000000
     atom   19 type  1   force =     0.00000000    0.00000000    0.00000000
     atom   20 type  1   force =     0.00000000    0.00000000    0.00000000
     atom   21 type  2   force =     0.00000000    0.00000000    0.00000000
     atom   22 type  2   force =     0.00000000    0.00000000    0.00000000
     atom   23 type  1   force =     0.00000000    0.00000000    0.00000000
     atom   24 type  1   force =     0.00000000    0.00000000    0.00000000
     atom   25 type  1   force =     0.00000000    0.00000000    0.00000000
     atom   26 type  1   force =     0.00000000    0.00000000    0.00000000
     atom   27 type  1   force =     0.00000000    0.00000000    0.00000000
     atom   28 type  1   force =     0.00000000    0.00000000    0.00000000
     atom   29 type  2   force =     0.00000000    0.00000000    0.00000000
     atom   30 type  2   force =     0.00000000    0.00000000    0.00000000
     atom   31 type  1   force =     0.00000000    0.00000000    0.00000000
     atom   32 type  1   force =     0.00000000    0.00000000    0.00000000
     atom   33 type  2   force =     0.00000000    0.00000000    0.00000000
     atom   34 type  2   force =     0.00000000    0.00000000    0.00000000
     atom   35 type  1   force =     0.00000000    0.00000000    0.00000000
     atom   36 type  1   force =     0.00000000    0.00000000    0.00000000
     atom   37 type  1   force =     0.00000000    0.00000000    0.00000000
     atom   38 type  1   force =     0.00000000    0.00000000    0.00000000
     atom   39 type  1   force =     0.00000000    0.00000000    0.00000000
     atom   40 type  1   force =     0.00000000    0.00000000    0.00000000
     atom   41 type  3   force =     0.00000000    0.00000000    0.00000000
     atom   42 type  3   force =     0.00000000    0.00000000    0.00000000
     atom   43 type  3   force =     0.00000000    0.00000000    0.00000000
     atom   44 type  3   force =     0.00000000    0.00000000    0.00000000
     atom   45 type  3   force =     0.00000000    0.00000000    0.00000000
     atom   46 type  3   force =     0.00000000    0.00000000    0.00000000
     The SCF correction term to forces
     atom    1 type  1   force =    -0.00000046    0.00000006   -0.00000188
     atom    2 type  1   force =     0.00000060    0.00000016   -0.00000128
     atom    3 type  1   force =    -0.00000038   -0.00000027   -0.00000074
     atom    4 type  1   force =     0.00000030    0.00000055   -0.00000168
     atom    5 type  2   force =     0.00000039   -0.00000013   -0.00000208
     atom    6 type  2   force =    -0.00000036   -0.00000013   -0.00000188
     atom    7 type  1   force =     0.00000092   -0.00000050   -0.00000062
     atom    8 type  1   force =    -0.00000101   -0.00000092   -0.00000092
     atom    9 type  2   force =    -0.00000068    0.00000040   -0.00000180
     atom   10 type  2   force =     0.00000079    0.00000013   -0.00000385
     atom   11 type  1   force =     0.00000084    0.00000061   -0.00000085
     atom   12 type  1   force =    -0.00000096    0.00000097   -0.00000102
     atom   13 type  1   force =    -0.00000051    0.00000004    0.00000072
     atom   14 type  1   force =     0.00000048   -0.00000025   -0.00000158
     atom   15 type  1   force =     0.00000052    0.00000000    0.00000046
     atom   16 type  1   force =    -0.00000037    0.00000024   -0.00000100
     atom   17 type  2   force =    -0.00000007    0.00000005   -0.00000001
     atom   18 type  2   force =    -0.00000012   -0.00000025   -0.00000001
     atom   19 type  1   force =    -0.00000181   -0.00000036   -0.00000000
     atom   20 type  1   force =     0.00000198   -0.00000118   -0.00000000
     atom   21 type  2   force =    -0.00000077    0.00000013   -0.00000001
     atom   22 type  2   force =     0.00000058    0.00000017   -0.00000001
     atom   23 type  1   force =    -0.00000175    0.00000037   -0.00000000
     atom   24 type  1   force =     0.00000191    0.00000118   -0.00000000
     atom   25 type  1   force =     0.00000052    0.00000000   -0.00000047
     atom   26 type  1   force =    -0.00000037    0.00000024    0.00000099
     atom   27 type  1   force =    -0.00000051    0.00000004   -0.00000072
     atom   28 type  1   force =     0.00000048   -0.00000025    0.00000158
     atom   29 type  2   force =     0.00000039   -0.00000013    0.00000207
     atom   30 type  2   force =    -0.00000036   -0.00000013    0.00000187
     atom   31 type  1   force =     0.00000092   -0.00000050    0.00000061
     atom   32 type  1   force =    -0.00000101   -0.00000092    0.00000092
     atom   33 type  2   force =    -0.00000068    0.00000040    0.00000179
     atom   34 type  2   force =     0.00000079    0.00000013    0.00000384
     atom   35 type  1   force =     0.00000084    0.00000061    0.00000085
     atom   36 type  1   force =    -0.00000096    0.00000097    0.00000102
     atom   37 type  1   force =    -0.00000038   -0.00000027    0.00000074
     atom   38 type  1   force =     0.00000030    0.00000055    0.00000168
     atom   39 type  1   force =    -0.00000046    0.00000006    0.00000188
     atom   40 type  1   force =     0.00000060    0.00000016    0.00000129
     atom   41 type  3   force =     0.00000012    0.00000002   -0.00000027
     atom   42 type  3   force =     0.00000012    0.00000002    0.00000027
     atom   43 type  3   force =    -0.00000004   -0.00000009   -0.00000020
     atom   44 type  3   force =    -0.00000004   -0.00000009    0.00000020
     atom   45 type  3   force =     0.00000003    0.00000001   -0.00000011
     atom   46 type  3   force =     0.00000003    0.00000001    0.00000011

     Total force =     0.000726     Total SCF correction =     0.000011
     Energy error            =      1.4E-06 Ry
     Gradient error          =      2.0E-04 Ry/Bohr

     number of scf cycles    =  46
     number of bfgs steps    =  45

     energy             old  =   -3435.3313028495 Ry
     energy             new  =   -3435.3313042781 Ry

     CASE: energy            _new < energy            _old

     new trust radius        =       0.0035428895 bohr
     new conv_thr            =            1.0E-11 Ry


ATOMIC_POSITIONS (crystal)
O             0.0056144778        0.4533743950        0.2697734738
O             0.4841168901        0.5012702708        0.2715624686
O            -0.0006689238        0.0214545924        0.3001358559
O             0.4981865257        0.0075194239        0.3032196409
Ru            0.2488707215        0.0050430709        0.3584914991
Ru            0.7487801000        0.0051113027        0.3581104429
O             0.2493200779        0.3119501253        0.3613105523
O             0.7493268718        0.3130158132        0.3587878715
Ru           -0.0006595979        0.5044175382        0.3579897106
Ru            0.4999155258        0.5037059247        0.3495698439
O             0.2415866778        0.6996910324        0.3550884430
O             0.7558947536        0.6973982003        0.3541805884
O            -0.0021733357        0.0060284519        0.4109465123
O             0.4996337062        0.0007990000        0.4119627892
O             0.0006232926        0.5128041341        0.4463767915
O             0.4999107542        0.5142105078        0.4407497447
Ru           -0.0012962769        0.0113750351        0.5000010000
Ru            0.4991730217        0.0121477689        0.5000010000
O             0.2493505002        0.2017509582        0.5000010000
O             0.7475681834        0.2020149798        0.5000010000
Ru            0.2566987680        0.5127596001        0.5000010000
Ru            0.7446185975        0.5125189913        0.5000010000
O             0.2485748606        0.8229663975        0.5000010000
O             0.7486569837        0.8222542106        0.5000010000
O             0.0006232926        0.5128041341        0.5536242085
O             0.4999107542        0.5142105078        0.5592512553
O            -0.0021733357        0.0060284519        0.5890544877
O             0.4996337062        0.0007990000        0.5880382108
Ru            0.2488707215        0.0050430709        0.6415095009
Ru            0.7487801000        0.0051113027        0.6418905571
O             0.2493200779        0.3119501253        0.6386904477
O             0.7493268718        0.3130158132        0.6412131285
Ru           -0.0006595979        0.5044175382        0.6420112894
Ru            0.4999155258        0.5037059247        0.6504311561
O             0.2415866778        0.6996910324        0.6449125570
O             0.7558947536        0.6973982003        0.6458204116
O            -0.0006689238        0.0214545924        0.6998661441
O             0.4981865257        0.0075194239        0.6967823591
O             0.0056144778        0.4533743950        0.7302275262
O             0.4841168901        0.5012702708        0.7284385314
H             0.1457872163        0.4845114265        0.2541780233
H             0.1457872163        0.4845114265        0.7458219767
H            -0.0005613872        0.1623453488        0.2783767084
H            -0.0005613872        0.1623453488        0.7216232916
H             0.4974583343       -0.0251115297        0.2600636387
H             0.4974583343       -0.0251115297        0.7399363613



     Writing config-only to output data dir /storage/home/mgm6007/ixd4/Maria/Strain0_Files/RuO2-110-0-023/RuO2-110-0-023.save/
     NEW-OLD atomic charge density approx. for the potential

     Check: negative core charge=   -0.000001

     negative rho (up, down):  1.480E-04 0.000E+00

     add environment contribution to local potential
     Polarization accuracy = 4.2E-12, # of iterations =  46

     total cpu time spent up to now is   205048.3 secs

     per-process dynamical memory:   223.9 Mb

     Self-consistent Calculation

     iteration #  1     ecut=    50.00 Ry     beta= 0.70
     Davidson diagonalization with overlap
     ethr =  1.00E-06,  avg # of iterations =  2.0

     Threshold (ethr) on eigenvalues was too large:
     Diagonalizing with lowered threshold

     Davidson diagonalization with overlap
     ethr =  4.85E-10,  avg # of iterations =  3.0

     negative rho (up, down):  1.482E-04 0.000E+00

     add environment contribution to local potential
     Polarization accuracy = 3.8E-12, # of iterations =  47

     total cpu time spent up to now is   205210.0 secs

     total energy              =   -3435.33130643 Ry
     estimated scf accuracy    <       0.00000158 Ry
     electrostatic embedding   =      -0.05893899 Ry
     cavitation energy         =       0.02160074 Ry
     PV energy                 =      -0.08204784 Ry
     correction to one-el term =     185.80032657 Ry

     iteration #  2     ecut=    50.00 Ry     beta= 0.70
     Davidson diagonalization with overlap
     ethr =  4.32E-10,  avg # of iterations =  2.0

     negative rho (up, down):  1.481E-04 0.000E+00

     add environment contribution to local potential
     Polarization accuracy = 3.8E-12, # of iterations =  47

     total cpu time spent up to now is   205372.2 secs

     total energy              =   -3435.33130629 Ry
     estimated scf accuracy    <       0.00000264 Ry
     electrostatic embedding   =      -0.05894685 Ry
     cavitation energy         =       0.02159955 Ry
     PV energy                 =      -0.08204737 Ry
     correction to one-el term =     185.80250135 Ry

     iteration #  3     ecut=    50.00 Ry     beta= 0.70
     Davidson diagonalization with overlap
     ethr =  4.32E-10,  avg # of iterations =  2.0

     negative rho (up, down):  1.488E-04 0.000E+00

     add environment contribution to local potential
     Polarization accuracy = 3.8E-12, # of iterations =  47

     total cpu time spent up to now is   205561.9 secs

     total energy              =   -3435.33130635 Ry
     estimated scf accuracy    <       0.00000034 Ry
     electrostatic embedding   =      -0.05894860 Ry
     cavitation energy         =       0.02159926 Ry
     PV energy                 =      -0.08204739 Ry
     correction to one-el term =     185.80260537 Ry

     iteration #  4     ecut=    50.00 Ry     beta= 0.70
     Davidson diagonalization with overlap
     ethr =  9.30E-11,  avg # of iterations =  3.0

     negative rho (up, down):  1.489E-04 0.000E+00

     add environment contribution to local potential
     Polarization accuracy = 3.7E-12, # of iterations =  47

     total cpu time spent up to now is   205730.5 secs

     total energy              =   -3435.33130600 Ry
     estimated scf accuracy    <       0.00000011 Ry
     electrostatic embedding   =      -0.05895689 Ry
     cavitation energy         =       0.02159850 Ry
     PV energy                 =      -0.08204723 Ry
     correction to one-el term =     185.80379676 Ry

     iteration #  5     ecut=    50.00 Ry     beta= 0.70
     Davidson diagonalization with overlap
     ethr =  2.92E-11,  avg # of iterations =  2.0

     negative rho (up, down):  1.492E-04 0.000E+00

     add environment contribution to local potential
     Polarization accuracy = 3.7E-12, # of iterations =  47

     total cpu time spent up to now is   205881.9 secs

     total energy              =   -3435.33130589 Ry
     estimated scf accuracy    <       0.00000004 Ry
     electrostatic embedding   =      -0.05895942 Ry
     cavitation energy         =       0.02159838 Ry
     PV energy                 =      -0.08204722 Ry
     correction to one-el term =     185.80396119 Ry

     iteration #  6     ecut=    50.00 Ry     beta= 0.70
     Davidson diagonalization with overlap
     ethr =  1.04E-11,  avg # of iterations =  3.0

     negative rho (up, down):  1.494E-04 0.000E+00

     add environment contribution to local potential
     Polarization accuracy = 3.8E-12, # of iterations =  47

     total cpu time spent up to now is   206076.2 secs

     total energy              =   -3435.33130570 Ry
     estimated scf accuracy    <       0.00000002 Ry
     electrostatic embedding   =      -0.05896388 Ry
     cavitation energy         =       0.02159823 Ry
     PV energy                 =      -0.08204725 Ry
     correction to one-el term =     185.80402044 Ry

     iteration #  7     ecut=    50.00 Ry     beta= 0.70
     Davidson diagonalization with overlap
     ethr =  4.83E-12,  avg # of iterations =  3.0

     negative rho (up, down):  1.494E-04 0.000E+00

     add environment contribution to local potential
     Polarization accuracy = 3.8E-12, # of iterations =  47

     total cpu time spent up to now is   206248.0 secs

     total energy              =   -3435.33130552 Ry
     estimated scf accuracy    <          9.6E-09 Ry
     electrostatic embedding   =      -0.05896843 Ry
     cavitation energy         =       0.02159811 Ry
     PV energy                 =      -0.08204729 Ry
     correction to one-el term =     185.80398976 Ry

     iteration #  8     ecut=    50.00 Ry     beta= 0.70
     Davidson diagonalization with overlap
     ethr =  2.63E-12,  avg # of iterations =  2.0

     negative rho (up, down):  1.492E-04 0.000E+00

     add environment contribution to local potential
     Polarization accuracy = 4.0E-12, # of iterations =  46

     total cpu time spent up to now is   206432.0 secs

     total energy              =   -3435.33130542 Ry
     estimated scf accuracy    <          2.0E-09 Ry
     electrostatic embedding   =      -0.05897180 Ry
     cavitation energy         =       0.02159803 Ry
     PV energy                 =      -0.08204732 Ry
     correction to one-el term =     185.80385906 Ry

     iteration #  9     ecut=    50.00 Ry     beta= 0.70
     Davidson diagonalization with overlap
     ethr =  5.58E-13,  avg # of iterations =  2.0

     negative rho (up, down):  1.490E-04 0.000E+00

     add environment contribution to local potential
     Polarization accuracy = 8.8E-12, # of iterations =  45

     total cpu time spent up to now is   206593.0 secs

     total energy              =   -3435.33130540 Ry
     estimated scf accuracy    <          9.8E-10 Ry
     electrostatic embedding   =      -0.05897325 Ry
     cavitation energy         =       0.02159802 Ry
     PV energy                 =      -0.08204733 Ry
     correction to one-el term =     185.80370323 Ry

     iteration # 10     ecut=    50.00 Ry     beta= 0.70
     Davidson diagonalization with overlap
     ethr =  2.68E-13,  avg # of iterations =  2.0

     negative rho (up, down):  1.488E-04 0.000E+00

     add environment contribution to local potential
     Polarization accuracy = 8.8E-12, # of iterations =  46

     total cpu time spent up to now is   206780.4 secs

     total energy              =   -3435.33130540 Ry
     estimated scf accuracy    <          1.2E-10 Ry
     electrostatic embedding   =      -0.05897422 Ry
     cavitation energy         =       0.02159802 Ry
     PV energy                 =      -0.08204733 Ry
     correction to one-el term =     185.80359845 Ry

     iteration # 11     ecut=    50.00 Ry     beta= 0.70
     Davidson diagonalization with overlap
     ethr =  1.00E-13,  avg # of iterations =  3.0

     negative rho (up, down):  1.486E-04 0.000E+00

     add environment contribution to local potential
     Polarization accuracy = 3.8E-12, # of iterations =  47

     total cpu time spent up to now is   206943.7 secs

     total energy              =   -3435.33130541 Ry
     estimated scf accuracy    <          9.7E-11 Ry
     electrostatic embedding   =      -0.05897507 Ry
     cavitation energy         =       0.02159802 Ry
     PV energy                 =      -0.08204733 Ry
     correction to one-el term =     185.80344078 Ry

     iteration # 12     ecut=    50.00 Ry     beta= 0.70
     Davidson diagonalization with overlap
     ethr =  1.00E-13,  avg # of iterations =  2.0

     negative rho (up, down):  1.485E-04 0.000E+00

     add environment contribution to local potential
     Polarization accuracy = 4.4E-12, # of iterations =  46

     total cpu time spent up to now is   207120.5 secs

     total energy              =   -3435.33130542 Ry
     estimated scf accuracy    <          3.9E-11 Ry
     electrostatic embedding   =      -0.05897555 Ry
     cavitation energy         =       0.02159802 Ry
     PV energy                 =      -0.08204733 Ry
     correction to one-el term =     185.80336861 Ry

     iteration # 13     ecut=    50.00 Ry     beta= 0.70
     Davidson diagonalization with overlap
     ethr =  1.00E-13,  avg # of iterations =  2.0

     negative rho (up, down):  1.483E-04 0.000E+00

     add environment contribution to local potential
     Polarization accuracy = 7.4E-12, # of iterations =  45

     total cpu time spent up to now is   207290.1 secs

     total energy              =   -3435.33130542 Ry
     estimated scf accuracy    <          1.5E-11 Ry
     electrostatic embedding   =      -0.05897599 Ry
     cavitation energy         =       0.02159803 Ry
     PV energy                 =      -0.08204733 Ry
     correction to one-el term =     185.80329040 Ry

     iteration # 14     ecut=    50.00 Ry     beta= 0.70
     Davidson diagonalization with overlap
     ethr =  1.00E-13,  avg # of iterations =  2.0

     negative rho (up, down):  1.481E-04 0.000E+00
