
     Program PWSCF v.7.2 starts on 24Jul2023 at 16:15:37 
        Git branch: heads/qe-7.2
        Last git commit: b4c5e8deeb7d1863e7553a87b45f8d22c21926a5
        Last git commit date: Mon Mar 27 16:12:09 2023 +0000
        Last git commit subject: Merge branch 'merge_fix_hubbard' into 'develop'

     This program is part of the open-source Quantum ESPRESSO suite
     for quantum simulation of materials; please cite
         "P. Giannozzi et al., J. Phys.:Condens. Matter 21 395502 (2009);
         "P. Giannozzi et al., J. Phys.:Condens. Matter 29 465901 (2017);
         "P. Giannozzi et al., J. Chem. Phys. 152 154105 (2020);
          URL http://www.quantum-espresso.org", 
     in publications or presentations arising from this work. More details at
     http://www.quantum-espresso.org/quote

     Parallel version (MPI), running on    20 processors

     MPI processes distributed on     1 nodes
     85504 MiB available memory on the printing compute node when the environment starts
 
     Reading input from RuO2-110-0-0.in

     Current dimensions of program PWSCF are:
     Max number of different atomic species (ntypx) = 10
     Max number of k-points (npk) =  40000
     Max angular momentum in pseudopotentials (lmaxx) =  4
 
     Reading input from environ.in:
     * Environ restarting
     * setting up water environment
     * using electronic solvent mode
     * setting boundary derivatives method to SCCS default
     
     file O.pbe-n-kjpaw_psl.0.1.UPF: wavefunction(s)  2P renormalized
     Message from routine setup:
     using ibrav=0 with symmetry is DISCOURAGED, use correct ibrav instead
 
     R & G space division:  proc/nbgrp/npool/nimage =      20
     Subspace diagonalization in iterative solution of the eigenvalue problem:
     one sub-group per band group will be used
     scalapack distributed-memory algorithm (size of sub-group:  2*  2 procs)

 
     Parallelization info
     --------------------
     sticks:   dense  smooth     PW     G-vecs:    dense   smooth      PW
     Min         276     110     29                54982    13912    1877
     Max         277     111     30                54993    13923    1888
     Sum        5537    2217    585              1099789   278381   37601
 
     Using Slab Decomposition
 


     bravais-lattice index     =            0
     lattice parameter (alat)  =      12.3824  a.u.
     unit-cell volume          =    5825.9133 (a.u.)^3
     number of atoms/cell      =           42
     number of atomic types    =            3
     number of electrons       =       362.00
     number of Kohn-Sham states=          217
     kinetic-energy cutoff     =      50.0000  Ry
     charge density cutoff     =     500.0000  Ry
     scf convergence threshold =      1.0E-09
     mixing beta               =       0.7000
     number of iterations used =            8  local-TF  mixing
     energy convergence thresh.=      1.0E-04
     force convergence thresh. =      1.0E-04
     Exchange-correlation= PBE
                           (   1   4   3   4   0   0   0)
     nstep                     =          200


     ================================================================================
 
                                  Environ Setup Summary

     ================================================================================
 
     Please cite

          O. Andreussi, I. Dabo and N. Marzari, J. Chem. Phys. 136, 064102 (2012)

     in publications or presentations arising from this work.

     ================================================================================
 
     Parameters
     ==========

     compensation onset threshold      =               0.1000E+00
     static permittivity               =                    78.30
     surface tension in input (dyn/cm) =                    47.90
     surface tension in internal units =               0.6153E-04
     external pressure in input (GPa)  =                    -0.36
     external pressure in inter. units =              -0.2447E-04

     Solvent Boundary
     ================

     solvent mode                      =               electronic
     derivatives method                =                    chain
     numerical core for derivatives    =                      fft
     switching function adopted        =                     SCCS
     density limit for vacuum region   =               0.5000E-02
     density limit for bulk solvent    =               0.1000E-03

     Electrostatic Setup
     ===================

     electrostatic problem to solve    =              generalized
     numerical solver adopted          =                       cg
     type of auxiliary density adopted =                     none
     numerical core for poisson        =                      fft
     type of pbc corrections           =                parabolic
     numerical core for corrections    =                      1da

     ================================================================================
 

     celldm(1)=  12.382447  celldm(2)=   0.000000  celldm(3)=   0.000000
     celldm(4)=   0.000000  celldm(5)=   0.000000  celldm(6)=   0.000000

     crystal axes: (cart. coord. in units of alat)
               a(1) = (   1.000000   0.000000   0.000000 )  
               a(2) = (   0.000000   0.908473   0.000000 )  
               a(3) = (   0.000000   0.000000   3.377790 )  

     reciprocal axes: (cart. coord. in units 2 pi/alat)
               b(1) = (  1.000000  0.000000  0.000000 )  
               b(2) = (  0.000000  1.100748  0.000000 )  
               b(3) = (  0.000000  0.000000  0.296052 )  


     PseudoPot. # 1 for O  read from file:
     /gpfs/group/ixd4/default/Simon/pseudopotentials/materialscloud/SSSP_1.3.0_PBE_efficiency/O.pbe-n-kjpaw_psl.0.1.UPF
     MD5 check sum: 0234752ac141de4415c5fc33072bef88
     Pseudo is Projector augmented-wave + core cor, Zval =  6.0
     Generated using "atomic" code by A. Dal Corso  v.5.0.99 svn rev. 10869
     Shape of augmentation charge: BESSEL
     Using radial grid of 1095 points,  4 beta functions with: 
                l(1) =   0
                l(2) =   0
                l(3) =   1
                l(4) =   1
     Q(r) pseudized with 0 coefficients 


     PseudoPot. # 2 for Ru read from file:
     /gpfs/group/ixd4/default/Simon/pseudopotentials/materialscloud/SSSP_1.3.0_PBE_efficiency/Ru_ONCV_PBE-1.0.oncvpsp.upf
     MD5 check sum: be037bb81c227cfb9b1461a9f099f4bd
     Pseudo is Norm-conserving, Zval = 16.0
     Generated using ONCVPSP code by D. R. Hamann
     Using radial grid of 1458 points,  6 beta functions with: 
                l(1) =   0
                l(2) =   0
                l(3) =   1
                l(4) =   1
                l(5) =   2
                l(6) =   2

     PseudoPot. # 3 for H  read from file:
     /gpfs/group/ixd4/default/Simon/pseudopotentials/materialscloud/SSSP_1.3.0_PBE_efficiency/H.pbe-rrkjus_psl.1.0.0.UPF
     MD5 check sum: f52b6d4d1c606e5624b1dc7b2218f220
     Pseudo is Ultrasoft, Zval =  1.0
     Generated using "atomic" code by A. Dal Corso  v.5.1
     Using radial grid of  929 points,  2 beta functions with: 
                l(1) =   0
                l(2) =   0
     Q(r) pseudized with 0 coefficients 


     atomic species   valence    mass     pseudopotential
        O              6.00    15.99940     O ( 1.00)
        Ru            16.00   101.07000     Ru( 1.00)
        H              1.00     1.00794     H ( 1.00)

      4 Sym. Ops. (no inversion) found



   Cartesian axes

     site n.     atom                  positions (alat units)
         1           O   tau(   1) = (  -0.0077095   0.4542364   0.9218483  )
         2           O   tau(   2) = (   0.5006017   0.4542364   0.9240875  )
         3           O   tau(   3) = (  -0.0005764   0.0000000   1.0397644  )
         4           O   tau(   4) = (   0.4997062   0.0000000   1.0392751  )
         5           Ru  tau(   5) = (   0.2496083   0.0000000   1.1982873  )
         6           Ru  tau(   6) = (   0.7493724   0.0000000   1.1991986  )
         7           O   tau(   7) = (   0.2469728   0.2799389   1.2100402  )
         8           O   tau(   8) = (   0.7498513   0.2792863   1.2104271  )
         9           Ru  tau(   9) = (  -0.0036656   0.4542364   1.2107009  )
        10           Ru  tau(  10) = (   0.4970576   0.4542364   1.1837538  )
        11           O   tau(  11) = (   0.2469728   0.6285339   1.2100402  )
        12           O   tau(  12) = (   0.7498513   0.6291865   1.2104271  )
        13           O   tau(  13) = (   0.0011599   0.0000000   1.3939886  )
        14           O   tau(  14) = (   0.4988522   0.0000000   1.3936856  )
        15           O   tau(  15) = (   0.0041895   0.4542364   1.5075293  )
        16           O   tau(  16) = (   0.5039344   0.4542364   1.4907804  )
        17           Ru  tau(  17) = (   0.0027107   0.0000000   1.6888985  )
        18           Ru  tau(  18) = (   0.4990717   0.0000000   1.6888985  )
        19           O   tau(  19) = (   0.2530546   0.1779323   1.6888985  )
        20           O   tau(  20) = (   0.7496782   0.1739430   1.6888985  )
        21           Ru  tau(  21) = (   0.2580963   0.4542364   1.6888985  )
        22           Ru  tau(  22) = (   0.7442286   0.4542364   1.6888985  )
        23           O   tau(  23) = (   0.2530546   0.7305415   1.6888985  )
        24           O   tau(  24) = (   0.7496782   0.7345308   1.6888985  )
        25           O   tau(  25) = (   0.0041895   0.4542364   1.8702644  )
        26           O   tau(  26) = (   0.5039344   0.4542364   1.8870133  )
        27           O   tau(  27) = (   0.0011599   0.0000000   1.9838051  )
        28           O   tau(  28) = (   0.4988522   0.0000000   1.9841081  )
        29           Ru  tau(  29) = (   0.2496083   0.0000000   2.1795064  )
        30           Ru  tau(  30) = (   0.7493724   0.0000000   2.1785951  )
        31           O   tau(  31) = (   0.2469728   0.2799389   2.1677535  )
        32           O   tau(  32) = (   0.7498513   0.2792863   2.1673666  )
        33           Ru  tau(  33) = (  -0.0036656   0.4542364   2.1670928  )
        34           Ru  tau(  34) = (   0.4970576   0.4542364   2.1940399  )
        35           O   tau(  35) = (   0.2469728   0.6285339   2.1677535  )
        36           O   tau(  36) = (   0.7498513   0.6291865   2.1673666  )
        37           O   tau(  37) = (  -0.0005764   0.0000000   2.3380327  )
        38           O   tau(  38) = (   0.4997062   0.0000000   2.3385220  )
        39           O   tau(  39) = (  -0.0077095   0.4542364   2.4559454  )
        40           O   tau(  40) = (   0.5006017   0.4542364   2.4537062  )
        41           H   tau(  41) = (   0.1266693   0.4542364   0.8489521  )
        42           H   tau(  42) = (   0.1266693   0.4542364   2.5288383  )

     number of k points=     1  Marzari-Vanderbilt smearing, width (Ry)=  0.0300
                       cart. coord. in units 2pi/alat
        k(    1) = (   0.2500000   0.2751871   0.0000000), wk =   2.0000000

     Dense  grid:  1099789 G-vectors     FFT dimensions: (  90,  81, 300)

     Smooth grid:   278381 G-vectors     FFT dimensions: (  60,  54, 192)

     Estimated max dynamical RAM per process >     168.38 MB

     Estimated total dynamical RAM >       3.29 GB

     Check: negative core charge=   -0.000001

     Initial potential from superposition of free atoms

     starting charge     361.9933, renormalised to     362.0000

     add environment contribution to local potential
     Polarization accuracy = 3.0E-12, # of iterations =  24

     negative rho (up, down):  3.671E-05 0.000E+00
     Starting wfcs are  234 randomized atomic wfcs
     Checking if some PAW data can be deallocated... 

     total cpu time spent up to now is     2962.5 secs

     per-process dynamical memory:   137.6 Mb

     Self-consistent Calculation

     iteration #  1     ecut=    50.00 Ry     beta= 0.70
     Davidson diagonalization with overlap
     ethr =  1.00E-02,  avg # of iterations =  2.0

     total cpu time spent up to now is     3925.4 secs

     total energy              =   -3427.25711629 Ry
     estimated scf accuracy    <      10.76503006 Ry
     electrostatic embedding   =      -0.00168607 Ry
     cavitation energy         =       0.01949835 Ry
     PV energy                 =      -0.08140451 Ry
     correction to one-el term =     214.99912674 Ry

     iteration #  2     ecut=    50.00 Ry     beta= 0.70
     Davidson diagonalization with overlap
     ethr =  2.97E-03,  avg # of iterations =  2.0

     total cpu time spent up to now is     4739.8 secs

     total energy              =   -3429.66942618 Ry
     estimated scf accuracy    <       2.55498839 Ry
     electrostatic embedding   =      -0.00213803 Ry
     cavitation energy         =       0.01969675 Ry
     PV energy                 =      -0.08098101 Ry
     correction to one-el term =     215.00003722 Ry

     iteration #  3     ecut=    50.00 Ry     beta= 0.70
     Davidson diagonalization with overlap
     ethr =  7.06E-04,  avg # of iterations =  1.0

     total cpu time spent up to now is     5625.3 secs

     total energy              =   -3429.95751072 Ry
     estimated scf accuracy    <       0.37326995 Ry
     electrostatic embedding   =      -0.00239316 Ry
     cavitation energy         =       0.01977531 Ry
     PV energy                 =      -0.08105710 Ry
     correction to one-el term =     215.00070007 Ry

     iteration #  4     ecut=    50.00 Ry     beta= 0.70
     Davidson diagonalization with overlap
     ethr =  1.03E-04,  avg # of iterations =  3.0

     total cpu time spent up to now is     6529.2 secs

     total energy              =   -3429.98629800 Ry
     estimated scf accuracy    <       0.20521085 Ry
     electrostatic embedding   =      -0.00241452 Ry
     cavitation energy         =       0.01995081 Ry
     PV energy                 =      -0.08062299 Ry
     correction to one-el term =     215.00051433 Ry

     iteration #  5     ecut=    50.00 Ry     beta= 0.70
     Davidson diagonalization with overlap
     ethr =  5.67E-05,  avg # of iterations =  1.0

     add environment contribution to local potential
     Polarization accuracy = 4.2E-12, # of iterations =  37

     total cpu time spent up to now is     7296.8 secs

     total energy              =   -3429.98878275 Ry
     estimated scf accuracy    <       0.04134957 Ry
     electrostatic embedding   =      -0.00246923 Ry
     cavitation energy         =       0.02019445 Ry
     PV energy                 =      -0.08016782 Ry
     correction to one-el term =     215.00042309 Ry

     iteration #  6     ecut=    50.00 Ry     beta= 0.70
     Davidson diagonalization with overlap
     ethr =  1.14E-05,  avg # of iterations = 12.0

     add environment contribution to local potential
     Polarization accuracy = 2.0E-12, # of iterations =  38

     total cpu time spent up to now is     8011.2 secs

     total energy              =   -3430.00910709 Ry
     estimated scf accuracy    <       0.02225170 Ry
     electrostatic embedding   =      -0.02056776 Ry
     cavitation energy         =       0.02056974 Ry
     PV energy                 =      -0.07950959 Ry
     correction to one-el term =     198.19420205 Ry

     iteration #  7     ecut=    50.00 Ry     beta= 0.70
     Davidson diagonalization with overlap
     ethr =  6.15E-06,  avg # of iterations = 12.0

     add environment contribution to local potential
     Polarization accuracy = 6.1E-12, # of iterations =  38

     total cpu time spent up to now is     8925.3 secs

     total energy              =   -3430.00971448 Ry
     estimated scf accuracy    <       0.01635916 Ry
     electrostatic embedding   =      -0.02304599 Ry
     cavitation energy         =       0.02071238 Ry
     PV energy                 =      -0.07927449 Ry
     correction to one-el term =     197.13502255 Ry

     iteration #  8     ecut=    50.00 Ry     beta= 0.70
     Davidson diagonalization with overlap
     ethr =  4.52E-06,  avg # of iterations =  1.0

     add environment contribution to local potential
     Polarization accuracy = 9.4E-12, # of iterations =  43

     total cpu time spent up to now is    12404.8 secs

     total energy              =   -3430.00842004 Ry
     estimated scf accuracy    <       0.01638330 Ry
     electrostatic embedding   =      -0.02575528 Ry
     cavitation energy         =       0.02084625 Ry
     PV energy                 =      -0.07905621 Ry
     correction to one-el term =     196.23347910 Ry

     iteration #  9     ecut=    50.00 Ry     beta= 0.70
     Davidson diagonalization with overlap
     ethr =  4.52E-06,  avg # of iterations =  2.0

     add environment contribution to local potential
     Polarization accuracy = 6.5E-12, # of iterations =  44

     total cpu time spent up to now is    13178.2 secs

     total energy              =   -3430.01006770 Ry
     estimated scf accuracy    <       0.01421152 Ry
     electrostatic embedding   =      -0.03565416 Ry
     cavitation energy         =       0.02122083 Ry
     PV energy                 =      -0.07848707 Ry
     correction to one-el term =     194.09096401 Ry

     iteration # 10     ecut=    50.00 Ry     beta= 0.70
     Davidson diagonalization with overlap
     ethr =  3.93E-06,  avg # of iterations =  1.0

     add environment contribution to local potential
     Polarization accuracy = 5.8E-12, # of iterations =  44

     total cpu time spent up to now is    13743.4 secs

     total energy              =   -3430.01030515 Ry
     estimated scf accuracy    <       0.00735512 Ry
     electrostatic embedding   =      -0.03829448 Ry
     cavitation energy         =       0.02125530 Ry
     PV energy                 =      -0.07839554 Ry
     correction to one-el term =     193.93472109 Ry

     iteration # 11     ecut=    50.00 Ry     beta= 0.70
     Davidson diagonalization with overlap
     ethr =  2.03E-06,  avg # of iterations =  2.0

     negative rho (up, down):  8.912E-06 0.000E+00

     add environment contribution to local potential
     Polarization accuracy = 3.5E-12, # of iterations =  44

     total cpu time spent up to now is    14128.6 secs

     total energy              =   -3430.01048449 Ry
     estimated scf accuracy    <       0.00347394 Ry
     electrostatic embedding   =      -0.03982340 Ry
     cavitation energy         =       0.02119323 Ry
     PV energy                 =      -0.07838593 Ry
     correction to one-el term =     194.40637514 Ry

     iteration # 12     ecut=    50.00 Ry     beta= 0.70
     Davidson diagonalization with overlap
     ethr =  9.60E-07,  avg # of iterations =  2.0

     negative rho (up, down):  2.440E-05 0.000E+00

     add environment contribution to local potential
     Polarization accuracy = 1.8E-12, # of iterations =  44

     total cpu time spent up to now is    14880.9 secs

     total energy              =   -3430.01084769 Ry
     estimated scf accuracy    <       0.00187146 Ry
     electrostatic embedding   =      -0.04083414 Ry
     cavitation energy         =       0.02107555 Ry
     PV energy                 =      -0.07841901 Ry
     correction to one-el term =     195.35215016 Ry

     iteration # 13     ecut=    50.00 Ry     beta= 0.70
     Davidson diagonalization with overlap
     ethr =  5.17E-07,  avg # of iterations =  1.0

     negative rho (up, down):  1.149E-04 0.000E+00

     add environment contribution to local potential
     Polarization accuracy = 9.4E-12, # of iterations =  43

     total cpu time spent up to now is    15487.7 secs

     total energy              =   -3430.01110246 Ry
     estimated scf accuracy    <       0.00095029 Ry
     electrostatic embedding   =      -0.04001561 Ry
     cavitation energy         =       0.02099186 Ry
     PV energy                 =      -0.07847479 Ry
     correction to one-el term =     196.07005609 Ry

     iteration # 14     ecut=    50.00 Ry     beta= 0.70
     Davidson diagonalization with overlap
     ethr =  2.63E-07,  avg # of iterations =  1.0

     negative rho (up, down):  1.801E-05 0.000E+00

     add environment contribution to local potential
     Polarization accuracy = 3.7E-12, # of iterations =  43

     total cpu time spent up to now is    15823.8 secs

     total energy              =   -3430.01124449 Ry
     estimated scf accuracy    <       0.00039049 Ry
     electrostatic embedding   =      -0.03948632 Ry
     cavitation energy         =       0.02094108 Ry
     PV energy                 =      -0.07850037 Ry
     correction to one-el term =     196.62270275 Ry

     iteration # 15     ecut=    50.00 Ry     beta= 0.70
     Davidson diagonalization with overlap
     ethr =  1.08E-07,  avg # of iterations =  3.0

     negative rho (up, down):  3.885E-06 0.000E+00

     add environment contribution to local potential
     Polarization accuracy = 3.3E-12, # of iterations =  42

     total cpu time spent up to now is    16164.3 secs

     total energy              =   -3430.01145435 Ry
     estimated scf accuracy    <       0.00011698 Ry
     electrostatic embedding   =      -0.03638126 Ry
     cavitation energy         =       0.02089414 Ry
     PV energy                 =      -0.07855686 Ry
     correction to one-el term =     197.34681141 Ry

     iteration # 16     ecut=    50.00 Ry     beta= 0.70
     Davidson diagonalization with overlap
     ethr =  3.23E-08,  avg # of iterations =  2.0

     negative rho (up, down):  2.001E-06 0.000E+00

     add environment contribution to local potential
     Polarization accuracy = 4.0E-12, # of iterations =  43

     total cpu time spent up to now is    16526.3 secs

     total energy              =   -3430.01149434 Ry
     estimated scf accuracy    <       0.00004221 Ry
     electrostatic embedding   =      -0.03538522 Ry
     cavitation energy         =       0.02090966 Ry
     PV energy                 =      -0.07855376 Ry
     correction to one-el term =     197.38093193 Ry

     iteration # 17     ecut=    50.00 Ry     beta= 0.70
     Davidson diagonalization with overlap
     ethr =  1.17E-08,  avg # of iterations =  3.0

     negative rho (up, down):  9.196E-05 0.000E+00

     add environment contribution to local potential
     Polarization accuracy = 5.4E-12, # of iterations =  43

     total cpu time spent up to now is    16883.7 secs

     total energy              =   -3430.01152943 Ry
     estimated scf accuracy    <       0.00002033 Ry
     electrostatic embedding   =      -0.03472608 Ry
     cavitation energy         =       0.02091973 Ry
     PV energy                 =      -0.07854954 Ry
     correction to one-el term =     197.41346292 Ry

     iteration # 18     ecut=    50.00 Ry     beta= 0.70
     Davidson diagonalization with overlap
     ethr =  5.62E-09,  avg # of iterations =  2.0

     negative rho (up, down):  1.782E-04 0.000E+00

     add environment contribution to local potential
     Polarization accuracy = 6.0E-12, # of iterations =  43

     total cpu time spent up to now is    17460.4 secs

     total energy              =   -3430.01153930 Ry
     estimated scf accuracy    <       0.00000734 Ry
     electrostatic embedding   =      -0.03449691 Ry
     cavitation energy         =       0.02092225 Ry
     PV energy                 =      -0.07853553 Ry
     correction to one-el term =     197.51376088 Ry

     iteration # 19     ecut=    50.00 Ry     beta= 0.70
     Davidson diagonalization with overlap
     ethr =  2.03E-09,  avg # of iterations =  3.0

     negative rho (up, down):  5.924E-05 0.000E+00

     add environment contribution to local potential
     Polarization accuracy = 7.4E-12, # of iterations =  43

     total cpu time spent up to now is    17803.8 secs

     total energy              =   -3430.01154381 Ry
     estimated scf accuracy    <       0.00000337 Ry
     electrostatic embedding   =      -0.03417491 Ry
     cavitation energy         =       0.02092481 Ry
     PV energy                 =      -0.07853138 Ry
     correction to one-el term =     197.55281760 Ry

     iteration # 20     ecut=    50.00 Ry     beta= 0.70
     Davidson diagonalization with overlap
     ethr =  9.31E-10,  avg # of iterations =  2.0

     negative rho (up, down):  1.315E-04 0.000E+00

     add environment contribution to local potential
     Polarization accuracy = 7.3E-12, # of iterations =  43

     total cpu time spent up to now is    18146.7 secs

     total energy              =   -3430.01154554 Ry
     estimated scf accuracy    <       0.00000113 Ry
     electrostatic embedding   =      -0.03413026 Ry
     cavitation energy         =       0.02093107 Ry
     PV energy                 =      -0.07852258 Ry
     correction to one-el term =     197.52661227 Ry

     iteration # 21     ecut=    50.00 Ry     beta= 0.70
     Davidson diagonalization with overlap
     ethr =  3.12E-10,  avg # of iterations =  1.0

     negative rho (up, down):  1.430E-04 0.000E+00

     add environment contribution to local potential
     Polarization accuracy = 7.5E-12, # of iterations =  43

     total cpu time spent up to now is    19141.7 secs

     total energy              =   -3430.01154579 Ry
     estimated scf accuracy    <       0.00000041 Ry
     electrostatic embedding   =      -0.03413348 Ry
     cavitation energy         =       0.02092858 Ry
     PV energy                 =      -0.07852386 Ry
     correction to one-el term =     197.54173303 Ry

     iteration # 22     ecut=    50.00 Ry     beta= 0.70
     Davidson diagonalization with overlap
     ethr =  1.13E-10,  avg # of iterations =  2.0

     negative rho (up, down):  1.457E-04 0.000E+00

     add environment contribution to local potential
     Polarization accuracy = 7.6E-12, # of iterations =  43

     total cpu time spent up to now is    19795.4 secs

     total energy              =   -3430.01154627 Ry
     estimated scf accuracy    <       0.00000024 Ry
     electrostatic embedding   =      -0.03410905 Ry
     cavitation energy         =       0.02092872 Ry
     PV energy                 =      -0.07852320 Ry
     correction to one-el term =     197.54229015 Ry

     iteration # 23     ecut=    50.00 Ry     beta= 0.70
     Davidson diagonalization with overlap
     ethr =  6.65E-11,  avg # of iterations =  2.0

     negative rho (up, down):  1.476E-04 0.000E+00

     add environment contribution to local potential
     Polarization accuracy = 9.4E-12, # of iterations =  43

     total cpu time spent up to now is    20176.4 secs

     total energy              =   -3430.01154676 Ry
     estimated scf accuracy    <       0.00000011 Ry
     electrostatic embedding   =      -0.03409406 Ry
     cavitation energy         =       0.02092899 Ry
     PV energy                 =      -0.07852249 Ry
     correction to one-el term =     197.54115656 Ry

     iteration # 24     ecut=    50.00 Ry     beta= 0.70
     Davidson diagonalization with overlap
     ethr =  2.92E-11,  avg # of iterations =  1.0

     negative rho (up, down):  1.539E-04 0.000E+00

     add environment contribution to local potential
     Polarization accuracy = 7.5E-12, # of iterations =  43

     total cpu time spent up to now is    20873.6 secs

     total energy              =   -3430.01154687 Ry
     estimated scf accuracy    <       0.00000010 Ry
     electrostatic embedding   =      -0.03409175 Ry
     cavitation energy         =       0.02092890 Ry
     PV energy                 =      -0.07852280 Ry
     correction to one-el term =     197.54179756 Ry

     iteration # 25     ecut=    50.00 Ry     beta= 0.70
     Davidson diagonalization with overlap
     ethr =  2.74E-11,  avg # of iterations =  2.0

     negative rho (up, down):  1.608E-04 0.000E+00

     add environment contribution to local potential
     Polarization accuracy = 7.4E-12, # of iterations =  43

     total cpu time spent up to now is    21225.4 secs

     total energy              =   -3430.01154722 Ry
     estimated scf accuracy    <       0.00000008 Ry
     electrostatic embedding   =      -0.03408331 Ry
     cavitation energy         =       0.02092866 Ry
     PV energy                 =      -0.07852331 Ry
     correction to one-el term =     197.54287104 Ry

     iteration # 26     ecut=    50.00 Ry     beta= 0.70
     Davidson diagonalization with overlap
     ethr =  2.32E-11,  avg # of iterations =  2.0

     negative rho (up, down):  1.635E-04 0.000E+00

     add environment contribution to local potential
     Polarization accuracy = 7.3E-12, # of iterations =  43

     total cpu time spent up to now is    21596.3 secs

     total energy              =   -3430.01154773 Ry
     estimated scf accuracy    <       0.00000008 Ry
     electrostatic embedding   =      -0.03407038 Ry
     cavitation energy         =       0.02092855 Ry
     PV energy                 =      -0.07852361 Ry
     correction to one-el term =     197.54447287 Ry

     iteration # 27     ecut=    50.00 Ry     beta= 0.70
     Davidson diagonalization with overlap
     ethr =  2.15E-11,  avg # of iterations =  2.0

     negative rho (up, down):  1.619E-04 0.000E+00

     add environment contribution to local potential
     Polarization accuracy = 7.2E-12, # of iterations =  43

     total cpu time spent up to now is    22151.4 secs

     total energy              =   -3430.01154823 Ry
     estimated scf accuracy    <       0.00000007 Ry
     electrostatic embedding   =      -0.03406107 Ry
     cavitation energy         =       0.02092844 Ry
     PV energy                 =      -0.07852402 Ry
     correction to one-el term =     197.54592761 Ry

     iteration # 28     ecut=    50.00 Ry     beta= 0.70
     Davidson diagonalization with overlap
     ethr =  1.98E-11,  avg # of iterations =  1.0

     negative rho (up, down):  1.691E-04 0.000E+00

     add environment contribution to local potential
     Polarization accuracy = 7.1E-12, # of iterations =  43

     total cpu time spent up to now is    22496.9 secs

     total energy              =   -3430.01154875 Ry
     estimated scf accuracy    <       0.00000007 Ry
     electrostatic embedding   =      -0.03405784 Ry
     cavitation energy         =       0.02092835 Ry
     PV energy                 =      -0.07852436 Ry
     correction to one-el term =     197.54670439 Ry

     iteration # 29     ecut=    50.00 Ry     beta= 0.70
     Davidson diagonalization with overlap
     ethr =  1.84E-11,  avg # of iterations =  2.0

     negative rho (up, down):  1.609E-04 0.000E+00

     add environment contribution to local potential
     Polarization accuracy = 7.0E-12, # of iterations =  43

     total cpu time spent up to now is    22910.3 secs

     total energy              =   -3430.01155008 Ry
     estimated scf accuracy    <       0.00000006 Ry
     electrostatic embedding   =      -0.03404345 Ry
     cavitation energy         =       0.02092830 Ry
     PV energy                 =      -0.07852439 Ry
     correction to one-el term =     197.54873244 Ry

     iteration # 30     ecut=    50.00 Ry     beta= 0.70
     Davidson diagonalization with overlap
     ethr =  1.75E-11,  avg # of iterations =  2.0

     negative rho (up, down):  1.672E-04 0.000E+00

     add environment contribution to local potential
     Polarization accuracy = 6.9E-12, # of iterations =  43

     total cpu time spent up to now is    23267.1 secs

     total energy              =   -3430.01155332 Ry
     estimated scf accuracy    <       0.00000005 Ry
     electrostatic embedding   =      -0.03403814 Ry
     cavitation energy         =       0.02092838 Ry
     PV energy                 =      -0.07852429 Ry
     correction to one-el term =     197.55022154 Ry

     iteration # 31     ecut=    50.00 Ry     beta= 0.70
     Davidson diagonalization with overlap
     ethr =  1.39E-11,  avg # of iterations =  3.0

     negative rho (up, down):  1.709E-04 0.000E+00

     add environment contribution to local potential
     Polarization accuracy = 6.8E-12, # of iterations =  43

     total cpu time spent up to now is    24036.8 secs

     total energy              =   -3430.01155964 Ry
     estimated scf accuracy    <       0.00000003 Ry
     electrostatic embedding   =      -0.03401865 Ry
     cavitation energy         =       0.02092838 Ry
     PV energy                 =      -0.07852419 Ry
     correction to one-el term =     197.55263184 Ry

     iteration # 32     ecut=    50.00 Ry     beta= 0.70
     Davidson diagonalization with overlap
     ethr =  9.22E-12,  avg # of iterations =  2.0

     negative rho (up, down):  1.702E-04 0.000E+00

     add environment contribution to local potential
     Polarization accuracy = 6.8E-12, # of iterations =  43

     total cpu time spent up to now is    24627.5 secs

     total energy              =   -3430.01156310 Ry
     estimated scf accuracy    <       0.00000003 Ry
     electrostatic embedding   =      -0.03402233 Ry
     cavitation energy         =       0.02092840 Ry
     PV energy                 =      -0.07852395 Ry
     correction to one-el term =     197.55191650 Ry

     iteration # 33     ecut=    50.00 Ry     beta= 0.70
     Davidson diagonalization with overlap
     ethr =  8.91E-12,  avg # of iterations =  2.0

     negative rho (up, down):  1.712E-04 0.000E+00

     add environment contribution to local potential
     Polarization accuracy = 6.8E-12, # of iterations =  43

     total cpu time spent up to now is    25393.0 secs

     total energy              =   -3430.01156581 Ry
     estimated scf accuracy    <       0.00000002 Ry
     electrostatic embedding   =      -0.03402661 Ry
     cavitation energy         =       0.02092848 Ry
     PV energy                 =      -0.07852366 Ry
     correction to one-el term =     197.55147688 Ry

     iteration # 34     ecut=    50.00 Ry     beta= 0.70
     Davidson diagonalization with overlap
     ethr =  4.55E-12,  avg # of iterations =  5.0

     negative rho (up, down):  1.716E-04 0.000E+00

     add environment contribution to local potential
     Polarization accuracy = 1.8E-12, # of iterations =  43

     total cpu time spent up to now is    26047.2 secs

     total energy              =   -3430.01156870 Ry
     estimated scf accuracy    <          8.8E-09 Ry
     electrostatic embedding   =      -0.03404470 Ry
     cavitation energy         =       0.02092854 Ry
     PV energy                 =      -0.07852342 Ry
     correction to one-el term =     197.54864774 Ry

     iteration # 35     ecut=    50.00 Ry     beta= 0.70
     Davidson diagonalization with overlap
     ethr =  2.43E-12,  avg # of iterations =  3.0

     negative rho (up, down):  1.682E-04 0.000E+00

     add environment contribution to local potential
     Polarization accuracy = 2.3E-12, # of iterations =  43

     total cpu time spent up to now is    26711.5 secs

     total energy              =   -3430.01157136 Ry
     estimated scf accuracy    <          4.1E-09 Ry
     electrostatic embedding   =      -0.03404717 Ry
     cavitation energy         =       0.02092848 Ry
     PV energy                 =      -0.07852364 Ry
     correction to one-el term =     197.54829561 Ry

     iteration # 36     ecut=    50.00 Ry     beta= 0.70
     Davidson diagonalization with overlap
     ethr =  1.13E-12,  avg # of iterations =  3.0

     negative rho (up, down):  1.662E-04 0.000E+00

     add environment contribution to local potential
     Polarization accuracy = 5.1E-12, # of iterations =  43

     total cpu time spent up to now is    27500.3 secs

     total energy              =   -3430.01157133 Ry
     estimated scf accuracy    <          3.7E-09 Ry
     electrostatic embedding   =      -0.03405711 Ry
     cavitation energy         =       0.02092850 Ry
     PV energy                 =      -0.07852367 Ry
     correction to one-el term =     197.54700976 Ry

     iteration # 37     ecut=    50.00 Ry     beta= 0.70
     Davidson diagonalization with overlap
     ethr =  1.02E-12,  avg # of iterations =  2.0

     negative rho (up, down):  1.645E-04 0.000E+00

     add environment contribution to local potential
     Polarization accuracy = 6.2E-12, # of iterations =  43

     total cpu time spent up to now is    28250.4 secs

     total energy              =   -3430.01157197 Ry
     estimated scf accuracy    <          1.3E-09 Ry
     electrostatic embedding   =      -0.03406189 Ry
     cavitation energy         =       0.02092850 Ry
     PV energy                 =      -0.07852370 Ry
     correction to one-el term =     197.54637650 Ry

     iteration # 38     ecut=    50.00 Ry     beta= 0.70
     Davidson diagonalization with overlap
     ethr =  3.71E-13,  avg # of iterations =  2.0

     negative rho (up, down):  1.618E-04 0.000E+00

     the potential shift due to the Gaussian-smeared nuclei is    -1.3280 ev

     total cpu time spent up to now is    29110.2 secs

     End of self-consistent calculation

          k = 0.2500 0.2752 0.0000 ( 34780 PWs)   bands (ev):

   -79.2218 -79.2088 -78.9378 -78.9263 -78.9253 -78.9139 -78.5376 -78.5251
   -78.2710 -78.2663 -78.2476 -78.1966 -49.7816 -49.7687 -49.1974 -49.1939
   -49.1849 -49.1814 -49.1082 -49.0953 -48.9250 -48.9127 -48.8429 -48.8305
   -48.8176 -48.8107 -48.8047 -48.7982 -48.7924 -48.7798 -48.7714 -48.7589
   -48.7491 -48.6600 -48.5128 -48.4927 -48.4802 -48.4569 -48.3051 -48.2926
   -48.2359 -48.1599 -48.1455 -48.1050 -48.0829 -48.0798 -48.0591 -47.9772
   -24.9202 -24.8072 -24.6554 -24.4313 -24.3896 -24.2983 -23.9508 -23.8039
   -23.7348 -23.7067 -23.6944 -23.6428 -23.6024 -23.5430 -23.5017 -23.4673
   -23.4583 -23.3923 -23.3694 -23.3362 -23.1844 -23.0382 -22.8515 -22.7864
   -22.7610 -22.6834 -22.6633 -22.4960 -13.1442 -13.1314 -12.9682 -12.6253
   -12.5990 -12.4232 -12.3569 -12.2380 -12.1938 -12.1792 -12.0772 -12.0655
   -12.0305 -11.9802 -11.8221 -11.7928 -11.7259 -11.6829 -11.6639 -11.5523
   -11.4681 -11.3262 -11.1898 -11.1117 -11.0506 -10.9101 -10.8631 -10.8226
   -10.6283 -10.5767 -10.5445 -10.4339 -10.3022 -10.2974 -10.2263 -10.1589
   -10.0408  -9.9983  -9.9413  -9.8642  -9.8560  -9.6472  -9.6233  -9.5132
    -9.3733  -9.3263  -9.1942  -9.1709  -9.1211  -9.0946  -9.0743  -9.0378
    -8.9774  -8.8630  -8.8349  -8.7647  -8.6911  -8.6810  -8.6300  -8.5521
    -8.5241  -8.3850  -8.3237  -8.2276  -8.1295  -8.0562  -7.9819  -7.9233
    -7.8771  -7.8048  -7.7204  -7.7019  -7.5621  -7.5127  -7.4831  -7.3754
    -7.2776  -7.2714  -7.2010  -7.1328  -7.0915  -6.9570  -6.8647  -6.8259
    -6.0250  -6.0052  -5.8296  -5.7920  -5.7851  -5.7126  -5.6964  -5.6620
    -5.6536  -5.5673  -5.5261  -5.4596  -5.4364  -5.3964  -5.3762  -5.1746
    -5.1441  -5.1366  -5.0770  -4.9816  -4.7975  -4.7536  -4.7120  -4.6527
    -4.5460  -4.5221  -4.3943  -4.3484  -4.1314  -4.0607  -4.0383  -4.0108
    -3.9397  -3.9279  -3.6442  -3.5306  -3.3179  -2.9156  -2.8599  -2.7686
    -2.6181  -2.5046  -1.7510  -1.5198  -1.4600  -1.2546  -1.1107  -1.0437
    -0.9489  -0.8843  -0.8437  -0.7059  -0.4322  -0.3410  -0.2515   0.1014
     0.1404

     the Fermi energy is    -4.8453 ev

!    total energy              =   -3430.01157248 Ry
     estimated scf accuracy    <          5.5E-10 Ry
     smearing contrib. (-TS)   =       0.03426506 Ry
     internal energy E=F+TS    =   -3430.04583753 Ry

     The total energy is F=E-TS. E is the sum of the following terms:
     one-electron contribution =  -25648.50789011 Ry
     hartree contribution      =   12794.50807819 Ry
     xc contribution           =    -444.58625367 Ry
     ewald contribution        =    9937.69877702 Ry
     one-center paw contrib.   =    -266.61346883 Ry
     electrostatic embedding   =      -0.03406100 Ry
     cavitation energy         =       0.02092848 Ry
     PV energy                 =      -0.07852378 Ry
     correction to one-el term =     197.54657616 Ry

     WARNING: you are using the parabolic pbc correction;
              the potential shift above must be added to 
              band and Fermi energies.

     convergence has been achieved in  38 iterations

     negative rho (up, down):  1.618E-04 0.000E+00

     Forces acting on atoms (cartesian axes, Ry/au):

     atom    1 type  1   force =     0.02637652    0.00000000   -0.02513090
     atom    2 type  1   force =     0.00002912    0.00000000   -0.01487002
     atom    3 type  1   force =     0.00023564    0.00000000   -0.00597333
     atom    4 type  1   force =    -0.00033549    0.00000000   -0.00640474
     atom    5 type  2   force =     0.00172495    0.00000000   -0.00398022
     atom    6 type  2   force =    -0.00223657    0.00000000   -0.00451727
     atom    7 type  1   force =    -0.00348494    0.05256344    0.00369212
     atom    8 type  1   force =     0.00224956    0.05402159    0.00265365
     atom    9 type  2   force =     0.00969171    0.00000000    0.01063876
     atom   10 type  2   force =     0.00095525    0.00000000    0.01997126
     atom   11 type  1   force =    -0.00348494   -0.05256344    0.00369212
     atom   12 type  1   force =     0.00224956   -0.05402159    0.00265365
     atom   13 type  1   force =     0.00047331    0.00000000   -0.00557661
     atom   14 type  1   force =     0.00009141    0.00000000   -0.00540437
     atom   15 type  1   force =    -0.00458778    0.00000000   -0.00391246
     atom   16 type  1   force =    -0.00073425    0.00000000    0.01221754
     atom   17 type  2   force =    -0.01216630    0.00000000    0.00000000
     atom   18 type  2   force =     0.01469544    0.00000000    0.00000000
     atom   19 type  1   force =    -0.00725684   -0.08418875    0.00000000
     atom   20 type  1   force =     0.00606810   -0.04638065    0.00000000
     atom   21 type  2   force =    -0.01334236    0.00000000    0.00000000
     atom   22 type  2   force =     0.01536672    0.00000000    0.00000000
     atom   23 type  1   force =    -0.00725684    0.08418875    0.00000000
     atom   24 type  1   force =     0.00606810    0.04638065    0.00000000
     atom   25 type  1   force =    -0.00458778    0.00000000    0.00391246
     atom   26 type  1   force =    -0.00073425    0.00000000   -0.01221754
     atom   27 type  1   force =     0.00047331    0.00000000    0.00557661
     atom   28 type  1   force =     0.00009141    0.00000000    0.00540437
     atom   29 type  2   force =     0.00172495    0.00000000    0.00398022
     atom   30 type  2   force =    -0.00223657    0.00000000    0.00451727
     atom   31 type  1   force =    -0.00348494    0.05256344   -0.00369212
     atom   32 type  1   force =     0.00224956    0.05402159   -0.00265365
     atom   33 type  2   force =     0.00969171    0.00000000   -0.01063876
     atom   34 type  2   force =     0.00095525    0.00000000   -0.01997126
     atom   35 type  1   force =    -0.00348494   -0.05256344   -0.00369212
     atom   36 type  1   force =     0.00224956   -0.05402159   -0.00265365
     atom   37 type  1   force =     0.00023564    0.00000000    0.00597333
     atom   38 type  1   force =    -0.00033549    0.00000000    0.00640474
     atom   39 type  1   force =     0.02637652    0.00000000    0.02513090
     atom   40 type  1   force =     0.00002912    0.00000000    0.01487002
     atom   41 type  3   force =    -0.03030108    0.00000000    0.01546742
     atom   42 type  3   force =    -0.03030108    0.00000000   -0.01546742
     The non-local contrib.  to forces
     atom    1 type  1   force =     1.74547313    0.00000000    0.29486174
     atom    2 type  1   force =    -0.05129618    0.00000000    1.34974702
     atom    3 type  1   force =     0.00734129    0.00000000    1.06913383
     atom    4 type  1   force =    -0.00168120    0.00000000    1.06986441
     atom    5 type  2   force =    -0.00438607    0.00000000   -0.05537724
     atom    6 type  2   force =     0.00673428    0.00000000   -0.05125232
     atom    7 type  1   force =     0.07120918   -0.05736503   -0.08431020
     atom    8 type  1   force =    -0.01977752   -0.05738611   -0.05638866
     atom    9 type  2   force =     0.00326148    0.00000000    0.01439311
     atom   10 type  2   force =     0.00385925    0.00000000   -0.08999506
     atom   11 type  1   force =     0.07120918    0.05736503   -0.08431020
     atom   12 type  1   force =    -0.01977752    0.05738611   -0.05638866
     atom   13 type  1   force =     0.01848842    0.00000000    0.07800527
     atom   14 type  1   force =    -0.00334480    0.00000000    0.07148258
     atom   15 type  1   force =    -0.00348290    0.00000000   -0.08027146
     atom   16 type  1   force =     0.01018959    0.00000000    0.26386889
     atom   17 type  2   force =     0.00643385    0.00000000    0.00000000
     atom   18 type  2   force =    -0.00359123    0.00000000    0.00000000
     atom   19 type  1   force =     0.03903926    0.02775349    0.00000000
     atom   20 type  1   force =    -0.02354783    0.08060726    0.00000000
     atom   21 type  2   force =     0.02315442    0.00000000    0.00000000
     atom   22 type  2   force =     0.01732107    0.00000000    0.00000000
     atom   23 type  1   force =     0.03903926   -0.02775349    0.00000000
     atom   24 type  1   force =    -0.02354783   -0.08060726    0.00000000
     atom   25 type  1   force =    -0.00348290    0.00000000    0.08027146
     atom   26 type  1   force =     0.01018959    0.00000000   -0.26386889
     atom   27 type  1   force =     0.01848842    0.00000000   -0.07800527
     atom   28 type  1   force =    -0.00334480    0.00000000   -0.07148258
     atom   29 type  2   force =    -0.00438607    0.00000000    0.05537724
     atom   30 type  2   force =     0.00673428    0.00000000    0.05125232
     atom   31 type  1   force =     0.07120918   -0.05736503    0.08431020
     atom   32 type  1   force =    -0.01977752   -0.05738611    0.05638866
     atom   33 type  2   force =     0.00326148    0.00000000   -0.01439311
     atom   34 type  2   force =     0.00385925    0.00000000    0.08999506
     atom   35 type  1   force =     0.07120918    0.05736503    0.08431020
     atom   36 type  1   force =    -0.01977752    0.05738611    0.05638866
     atom   37 type  1   force =     0.00734129    0.00000000   -1.06913383
     atom   38 type  1   force =    -0.00168120    0.00000000   -1.06986441
     atom   39 type  1   force =     1.74547313    0.00000000   -0.29486174
     atom   40 type  1   force =    -0.05129618    0.00000000   -1.34974702
     atom   41 type  3   force =    -0.08674368    0.00000000    0.05187324
     atom   42 type  3   force =    -0.08674368    0.00000000   -0.05187324
     The ionic contribution  to forces
     atom    1 type  1   force =    -2.81582307    0.00000014  -97.21010016
     atom    2 type  1   force =     0.37380624    0.00000015 -102.35605910
     atom    3 type  1   force =    -0.10468319   -0.00000030  -94.59108079
     atom    4 type  1   force =     0.07163098   -0.00000030  -94.59575288
     atom    5 type  2   force =     0.17555817   -0.00000211 -176.37711844
     atom    6 type  2   force =     0.00880531   -0.00000221 -175.84981600
     atom    7 type  1   force =     0.00637605    0.39451117  -63.22488742
     atom    8 type  1   force =    -0.35054344    0.42528985  -63.23094144
     atom    9 type  2   force =     0.10793863    0.00000303 -169.04390678
     atom   10 type  2   force =     0.18221948    0.00000251 -176.03866064
     atom   11 type  1   force =     0.00637607   -0.39451067  -63.22488514
     atom   12 type  1   force =    -0.35054344   -0.42528935  -63.23093908
     atom   13 type  1   force =    -0.19197493   -0.00000171  -38.63746071
     atom   14 type  1   force =     0.06649768   -0.00000171  -38.75476200
     atom   15 type  1   force =    -0.23683283    0.00000942  -24.75069829
     atom   16 type  1   force =    -0.06498074    0.00000874  -28.02724247
     atom   17 type  2   force =    -0.23053684    0.00001203   -0.00044497
     atom   18 type  2   force =     0.45071883    0.00001357   -0.00044431
     atom   19 type  1   force =    -0.36091272   -1.01830894   -0.00007624
     atom   20 type  1   force =     0.31007056   -0.62003204   -0.00007665
     atom   21 type  2   force =     0.79196204    0.00012373   -0.00024505
     atom   22 type  2   force =     0.17721189    0.00011913   -0.00024707
     atom   23 type  1   force =    -0.36091355    1.01815378   -0.00007624
     atom   24 type  1   force =     0.31006973    0.61988542   -0.00007665
     atom   25 type  1   force =    -0.23684599    0.00000942   24.75047261
     atom   26 type  1   force =    -0.06498885    0.00000874   28.02709402
     atom   27 type  1   force =    -0.19197788   -0.00000171   38.63778107
     atom   28 type  1   force =     0.06649904   -0.00000171   38.75508451
     atom   29 type  2   force =     0.17555708   -0.00000211  176.37732638
     atom   30 type  2   force =     0.00880627   -0.00000221  175.85002649
     atom   31 type  1   force =     0.00637586    0.39447767   63.22494720
     atom   32 type  1   force =    -0.35054277    0.42525872   63.23100460
     atom   33 type  2   force =     0.10792787    0.00000303  169.04402072
     atom   34 type  2   force =     0.18222733    0.00000251  176.03880093
     atom   35 type  1   force =     0.00637588   -0.39447717   63.22494493
     atom   36 type  1   force =    -0.35054278   -0.42525821   63.23100224
     atom   37 type  1   force =    -0.10468412   -0.00000030   94.59124059
     atom   38 type  1   force =     0.07163264   -0.00000030   94.59591678
     atom   39 type  1   force =    -2.81591621    0.00000014   97.21017891
     atom   40 type  1   force =     0.37380872    0.00000015  102.35611933
     atom   41 type  3   force =     2.57234871    0.00000001  -16.70815077
     atom   42 type  3   force =     2.57244229    0.00000001   16.70818801
     The local contribution  to forces
     atom    1 type  1   force =     0.99382413    0.00000000   96.90454353
     atom    2 type  1   force =    -0.23632378    0.00000000  100.97010335
     atom    3 type  1   force =     0.07071847   -0.00000000   93.49947459
     atom    4 type  1   force =    -0.04646014    0.00000000   93.50043873
     atom    5 type  2   force =    -0.16560597   -0.00000000  176.45056170
     atom    6 type  2   force =    -0.01984992    0.00000000  175.86568589
     atom    7 type  1   force =    -0.07804505   -0.28863430   63.32965019
     atom    8 type  1   force =     0.37079086   -0.31217274   63.27558978
     atom    9 type  2   force =    -0.14733718    0.00000000  169.04608513
     atom   10 type  2   force =    -0.13398658   -0.00000000  176.13995323
     atom   11 type  1   force =    -0.07804505    0.28863433   63.32965019
     atom   12 type  1   force =     0.37079086    0.31217274   63.27558978
     atom   13 type  1   force =     0.17013418    0.00000000   38.55313455
     atom   14 type  1   force =    -0.05915129    0.00000000   38.67634900
     atom   15 type  1   force =     0.23310877    0.00000000   24.82626594
     atom   16 type  1   force =     0.05692318   -0.00000000   27.77805559
     atom   17 type  2   force =     0.20845422    0.00000000   -0.00583264
     atom   18 type  2   force =    -0.42895051    0.00000000   -0.00586177
     atom   19 type  1   force =     0.31512351    0.90474829   -0.00248280
     atom   20 type  1   force =    -0.28077320    0.49244780   -0.00247034
     atom   21 type  2   force =    -0.82775503   -0.00000000   -0.00609782
     atom   22 type  2   force =    -0.17952204   -0.00000000   -0.00607803
     atom   23 type  1   force =     0.31512426   -0.90508506   -0.00248280
     atom   24 type  1   force =    -0.28077249   -0.49279042   -0.00247034
     atom   25 type  1   force =     0.23308878   -0.00000000  -24.82803656
     atom   26 type  1   force =     0.05691111    0.00000000  -27.77982226
     atom   27 type  1   force =     0.17013601   -0.00000000  -38.55487996
     atom   28 type  1   force =    -0.05915133    0.00000000  -38.67809200
     atom   29 type  2   force =    -0.16559736   -0.00000000 -176.45673307
     atom   30 type  2   force =    -0.01985526   -0.00000000 -175.87186525
     atom   31 type  1   force =    -0.07801882   -0.28863670  -63.33211838
     atom   32 type  1   force =     0.37076834   -0.31217497  -63.27806358
     atom   33 type  2   force =    -0.14734630   -0.00000000 -169.05191210
     atom   34 type  2   force =    -0.13398769   -0.00000000 -176.14567452
     atom   35 type  1   force =    -0.07801882    0.28863673  -63.33211838
     atom   36 type  1   force =     0.37076834    0.31217497  -63.27806358
     atom   37 type  1   force =     0.07071739   -0.00000000  -93.50341576
     atom   38 type  1   force =    -0.04646062   -0.00000000  -93.50438557
     atom   39 type  1   force =     0.99385911    0.00000000  -96.90606714
     atom   40 type  1   force =    -0.23631425    0.00000000 -100.97146022
     atom   41 type  3   force =    -2.54567354    0.00000000   16.70244067
     atom   42 type  3   force =    -2.54567354    0.00000000  -16.70244067
     The core correction contribution to forces
     atom    1 type  1   force =    -0.01802557   -0.00000000   -0.00285760
     atom    2 type  1   force =     0.00045261    0.00000000   -0.01106617
     atom    3 type  1   force =    -0.00006239    0.00000000   -0.01092043
     atom    4 type  1   force =    -0.00000241   -0.00000000   -0.01092623
     atom    5 type  2   force =     0.00000000    0.00000000    0.00000000
     atom    6 type  2   force =     0.00000000    0.00000000    0.00000000
     atom    7 type  1   force =    -0.00087833   -0.00048990    0.00080818
     atom    8 type  1   force =     0.00042124   -0.00053061    0.00049083
     atom    9 type  2   force =     0.00000000    0.00000000    0.00000000
     atom   10 type  2   force =     0.00000000    0.00000000    0.00000000
     atom   11 type  1   force =    -0.00087833    0.00048990    0.00080818
     atom   12 type  1   force =     0.00042124    0.00053061    0.00049083
     atom   13 type  1   force =    -0.00017473    0.00000000   -0.00052351
     atom   14 type  1   force =     0.00003245    0.00000000   -0.00045999
     atom   15 type  1   force =     0.00008377    0.00000000    0.00038849
     atom   16 type  1   force =    -0.00009250   -0.00000000   -0.00356717
     atom   17 type  2   force =     0.00000000    0.00000000    0.00000000
     atom   18 type  2   force =     0.00000000    0.00000000    0.00000000
     atom   19 type  1   force =    -0.00030915    0.00113899   -0.00000222
     atom   20 type  1   force =     0.00015555    0.00024679   -0.00000217
     atom   21 type  2   force =     0.00000000    0.00000000    0.00000000
     atom   22 type  2   force =     0.00000000    0.00000000    0.00000000
     atom   23 type  1   force =    -0.00030915   -0.00113945   -0.00000222
     atom   24 type  1   force =     0.00015555   -0.00024727   -0.00000217
     atom   25 type  1   force =     0.00008374   -0.00000000   -0.00039062
     atom   26 type  1   force =    -0.00009251    0.00000000    0.00356510
     atom   27 type  1   force =    -0.00017473   -0.00000000    0.00052122
     atom   28 type  1   force =     0.00003244    0.00000000    0.00045766
     atom   29 type  2   force =     0.00000000    0.00000000    0.00000000
     atom   30 type  2   force =     0.00000000    0.00000000    0.00000000
     atom   31 type  1   force =    -0.00087828   -0.00049003   -0.00080992
     atom   32 type  1   force =     0.00042124   -0.00053071   -0.00049264
     atom   33 type  2   force =     0.00000000    0.00000000    0.00000000
     atom   34 type  2   force =     0.00000000    0.00000000    0.00000000
     atom   35 type  1   force =    -0.00087828    0.00049003   -0.00080992
     atom   36 type  1   force =     0.00042124    0.00053071   -0.00049264
     atom   37 type  1   force =    -0.00006238    0.00000000    0.01091552
     atom   38 type  1   force =    -0.00000239   -0.00000000    0.01092141
     atom   39 type  1   force =    -0.01802639    0.00000000    0.00285524
     atom   40 type  1   force =     0.00045273    0.00000000    0.01106461
     atom   41 type  3   force =     0.00000000    0.00000000    0.00000000
     atom   42 type  3   force =     0.00000000    0.00000000    0.00000000
     The Hubbard contrib.    to forces
     atom    1 type  1   force =     0.00000000    0.00000000    0.00000000
     atom    2 type  1   force =     0.00000000    0.00000000    0.00000000
     atom    3 type  1   force =     0.00000000    0.00000000    0.00000000
     atom    4 type  1   force =     0.00000000    0.00000000    0.00000000
     atom    5 type  2   force =     0.00000000    0.00000000    0.00000000
     atom    6 type  2   force =     0.00000000    0.00000000    0.00000000
     atom    7 type  1   force =     0.00000000    0.00000000    0.00000000
     atom    8 type  1   force =     0.00000000    0.00000000    0.00000000
     atom    9 type  2   force =     0.00000000    0.00000000    0.00000000
     atom   10 type  2   force =     0.00000000    0.00000000    0.00000000
     atom   11 type  1   force =     0.00000000    0.00000000    0.00000000
     atom   12 type  1   force =     0.00000000    0.00000000    0.00000000
     atom   13 type  1   force =     0.00000000    0.00000000    0.00000000
     atom   14 type  1   force =     0.00000000    0.00000000    0.00000000
     atom   15 type  1   force =     0.00000000    0.00000000    0.00000000
     atom   16 type  1   force =     0.00000000    0.00000000    0.00000000
     atom   17 type  2   force =     0.00000000    0.00000000    0.00000000
     atom   18 type  2   force =     0.00000000    0.00000000    0.00000000
     atom   19 type  1   force =     0.00000000    0.00000000    0.00000000
     atom   20 type  1   force =     0.00000000    0.00000000    0.00000000
     atom   21 type  2   force =     0.00000000    0.00000000    0.00000000
     atom   22 type  2   force =     0.00000000    0.00000000    0.00000000
     atom   23 type  1   force =     0.00000000    0.00000000    0.00000000
     atom   24 type  1   force =     0.00000000    0.00000000    0.00000000
     atom   25 type  1   force =     0.00000000    0.00000000    0.00000000
     atom   26 type  1   force =     0.00000000    0.00000000    0.00000000
     atom   27 type  1   force =     0.00000000    0.00000000    0.00000000
     atom   28 type  1   force =     0.00000000    0.00000000    0.00000000
     atom   29 type  2   force =     0.00000000    0.00000000    0.00000000
     atom   30 type  2   force =     0.00000000    0.00000000    0.00000000
     atom   31 type  1   force =     0.00000000    0.00000000    0.00000000
     atom   32 type  1   force =     0.00000000    0.00000000    0.00000000
     atom   33 type  2   force =     0.00000000    0.00000000    0.00000000
     atom   34 type  2   force =     0.00000000    0.00000000    0.00000000
     atom   35 type  1   force =     0.00000000    0.00000000    0.00000000
     atom   36 type  1   force =     0.00000000    0.00000000    0.00000000
     atom   37 type  1   force =     0.00000000    0.00000000    0.00000000
     atom   38 type  1   force =     0.00000000    0.00000000    0.00000000
     atom   39 type  1   force =     0.00000000    0.00000000    0.00000000
     atom   40 type  1   force =     0.00000000    0.00000000    0.00000000
     atom   41 type  3   force =     0.00000000    0.00000000    0.00000000
     atom   42 type  3   force =     0.00000000    0.00000000    0.00000000
     The SCF correction term to forces
     atom    1 type  1   force =    -0.00000047   -0.00000001    0.00001325
     atom    2 type  1   force =     0.00000163   -0.00000001    0.00001161
     atom    3 type  1   force =     0.00000327    0.00000001    0.00001574
     atom    4 type  1   force =    -0.00000312    0.00000001    0.00001621
     atom    5 type  2   force =    -0.00000277    0.00000006    0.00004164
     atom    6 type  2   force =     0.00000250    0.00000006    0.00005519
     atom    7 type  1   force =    -0.00000142    0.00000288    0.00001345
     atom    8 type  1   force =     0.00000134    0.00000433    0.00001602
     atom    9 type  2   force =    -0.00000256   -0.00000006    0.00003586
     atom   10 type  2   force =     0.00000256   -0.00000006    0.00003967
     atom   11 type  1   force =    -0.00000142   -0.00000290    0.00001344
     atom   12 type  1   force =     0.00000134   -0.00000434    0.00001600
     atom   13 type  1   force =    -0.00000161    0.00000003    0.00002030
     atom   14 type  1   force =     0.00000161    0.00000003    0.00001829
     atom   15 type  1   force =    -0.00000784   -0.00000004    0.00001329
     atom   16 type  1   force =     0.00000766   -0.00000004    0.00001573
     atom   17 type  2   force =    -0.00000804    0.00000012    0.00001321
     atom   18 type  2   force =     0.00000816    0.00000013    0.00001324
     atom   19 type  1   force =    -0.00000195   -0.00000351    0.00000477
     atom   20 type  1   force =     0.00000186    0.00000607    0.00000478
     atom   21 type  2   force =     0.00000123   -0.00000013    0.00001280
     atom   22 type  2   force =     0.00000069   -0.00000013    0.00001281
     atom   23 type  1   force =    -0.00000195    0.00000354    0.00000477
     atom   24 type  1   force =     0.00000186   -0.00000603    0.00000478
     atom   25 type  1   force =    -0.00000784   -0.00000004   -0.00000665
     atom   26 type  1   force =     0.00000767   -0.00000004   -0.00000977
     atom   27 type  1   force =    -0.00000161    0.00000003   -0.00001759
     atom   28 type  1   force =     0.00000162    0.00000003   -0.00001561
     atom   29 type  2   force =    -0.00000278    0.00000006   -0.00005111
     atom   30 type  2   force =     0.00000250    0.00000006   -0.00006458
     atom   31 type  1   force =    -0.00000148    0.00000257   -0.00001669
     atom   32 type  1   force =     0.00000141    0.00000402   -0.00001924
     atom   33 type  2   force =    -0.00000259   -0.00000006   -0.00004527
     atom   34 type  2   force =     0.00000260   -0.00000006   -0.00005062
     atom   35 type  1   force =    -0.00000148   -0.00000259   -0.00001668
     atom   36 type  1   force =     0.00000141   -0.00000403   -0.00001922
     atom   37 type  1   force =     0.00000326    0.00000001   -0.00002057
     atom   38 type  1   force =    -0.00000310    0.00000001   -0.00002103
     atom   39 type  1   force =    -0.00000062   -0.00000001   -0.00001713
     atom   40 type  1   force =     0.00000167   -0.00000001   -0.00001530
     atom   41 type  3   force =    -0.00000010   -0.00000000    0.00000171
     atom   42 type  3   force =     0.00000001   -0.00000000   -0.00000208

     Total force =     0.222873     Total SCF correction =     0.000164

     BFGS Geometry Optimization
     Energy error            =      0.0E+00 Ry
     Gradient error          =      8.4E-02 Ry/Bohr

     number of scf cycles    =   1
     number of bfgs steps    =   0

     energy             new  =   -3430.0115724753 Ry

     new trust radius        =       0.0845009263 bohr
     new conv_thr            =       0.0000000010 Ry


ATOMIC_POSITIONS (crystal)
O            -0.0055792994        0.5000000000        0.2723137363
O             0.5006040203        0.5000000000        0.2732220046
O            -0.0005573398        0.0000000000        0.3076810181
O             0.4996791001        0.0000000000        0.3075258589
Ru            0.2497476515        0.0000000000        0.3546596225
Ru            0.7491917935        0.0000000000        0.3549165875
O             0.2466913988        0.3128149693        0.3583225224
O             0.7500329774        0.3122262644        0.3584122552
Ru           -0.0028828987        0.5000000000        0.3586842304
Ru            0.4971347892        0.5000000000        0.3509296203
O             0.2466913988        0.6871850306        0.3583225224
O             0.7500329774        0.6877737356        0.3584122552
O             0.0011981415        0.0000000000        0.4125591350
O             0.4988596269        0.0000000000        0.4124735542
O             0.0038189933        0.5000000000        0.4462128225
O             0.5038751394        0.5000000000        0.4416399177
Ru            0.0017282002        0.0000000000        0.5000010000
Ru            0.5002584815        0.0000000000        0.5000010000
O             0.2524685007        0.1883746571        0.5000010000
O             0.7501682910        0.1873444241        0.5000010000
Ru            0.2570188141        0.5000000000        0.5000010000
Ru            0.7454695966        0.5000000000        0.5000010000
O             0.2524685007        0.8116263429        0.5000010000
O             0.7501682910        0.8126565759        0.5000010000
O             0.0038189933        0.5000000000        0.5537881775
O             0.5038751394        0.5000000000        0.5583610823
O             0.0011981415        0.0000000000        0.5874418650
O             0.4988596269        0.0000000000        0.5875274458
Ru            0.2497476515        0.0000000000        0.6453413775
Ru            0.7491917935        0.0000000000        0.6450844125
O             0.2466913988        0.3128149693        0.6416784776
O             0.7500329774        0.3122262644        0.6415887448
Ru           -0.0028828987        0.5000000000        0.6413167696
Ru            0.4971347892        0.5000000000        0.6490713797
O             0.2466913988        0.6871850306        0.6416784776
O             0.7500329774        0.6877737356        0.6415887448
O            -0.0005573398        0.0000000000        0.6923209819
O             0.4996791001        0.0000000000        0.6924761411
O            -0.0055792994        0.5000000000        0.7276872637
O             0.5006040203        0.5000000000        0.7267789954
H             0.1242221920        0.5000000000        0.2517033690
H             0.1242221920        0.5000000000        0.7482966310



     Writing config-only to output data dir /storage/home/mgm6007/ixd4/Maria/StrainJin_Files/RuO2-110-0-0/RuO2-110-0-0.save/
     NEW-OLD atomic charge density approx. for the potential

     Check: negative core charge=   -0.000001

     negative rho (up, down):  1.573E-04 0.000E+00

     add environment contribution to local potential
     Polarization accuracy = 3.1E-12, # of iterations =  43

     total cpu time spent up to now is    29970.3 secs

     per-process dynamical memory:   202.3 Mb

     Self-consistent Calculation

     iteration #  1     ecut=    50.00 Ry     beta= 0.70
     Davidson diagonalization with overlap
     ethr =  1.00E-06,  avg # of iterations = 13.0

     negative rho (up, down):  1.181E-03 0.000E+00

     add environment contribution to local potential
     Polarization accuracy = 8.6E-12, # of iterations =  43

     total cpu time spent up to now is    30793.1 secs

     total energy              =   -3430.02976280 Ry
     estimated scf accuracy    <       0.05280726 Ry
     electrostatic embedding   =      -0.03536235 Ry
     cavitation energy         =       0.02100529 Ry
     PV energy                 =      -0.07851252 Ry
     correction to one-el term =     197.29318894 Ry

     iteration #  2     ecut=    50.00 Ry     beta= 0.70
     Davidson diagonalization with overlap
     ethr =  1.46E-05,  avg # of iterations =  2.0

     negative rho (up, down):  1.241E-03 0.000E+00

     add environment contribution to local potential
     Polarization accuracy = 7.6E-12, # of iterations =  43

     total cpu time spent up to now is    31631.3 secs

     total energy              =   -3430.03268688 Ry
     estimated scf accuracy    <       0.08826796 Ry
     electrostatic embedding   =      -0.03522224 Ry
     cavitation energy         =       0.02101141 Ry
     PV energy                 =      -0.07843920 Ry
     correction to one-el term =     197.59695847 Ry

     iteration #  3     ecut=    50.00 Ry     beta= 0.70
     Davidson diagonalization with overlap
     ethr =  1.46E-05,  avg # of iterations =  1.0

     negative rho (up, down):  1.818E-03 0.000E+00

     add environment contribution to local potential
     Polarization accuracy = 3.3E-12, # of iterations =  44

     total cpu time spent up to now is    32455.2 secs

     total energy              =   -3430.03713767 Ry
     estimated scf accuracy    <       0.00635888 Ry
     electrostatic embedding   =      -0.03486988 Ry
     cavitation energy         =       0.02099591 Ry
     PV energy                 =      -0.07847352 Ry
     correction to one-el term =     197.59206107 Ry

     iteration #  4     ecut=    50.00 Ry     beta= 0.70
     Davidson diagonalization with overlap
     ethr =  1.76E-06,  avg # of iterations =  1.0

     negative rho (up, down):  2.604E-03 0.000E+00

     add environment contribution to local potential
     Polarization accuracy = 8.5E-12, # of iterations =  43

     total cpu time spent up to now is    33259.8 secs

     total energy              =   -3430.03725880 Ry
     estimated scf accuracy    <       0.00153405 Ry
     electrostatic embedding   =      -0.03454015 Ry
     cavitation energy         =       0.02099335 Ry
     PV energy                 =      -0.07847267 Ry
     correction to one-el term =     197.70930121 Ry

     iteration #  5     ecut=    50.00 Ry     beta= 0.70
     Davidson diagonalization with overlap
     ethr =  4.24E-07,  avg # of iterations =  2.0

     negative rho (up, down):  2.729E-03 0.000E+00

     add environment contribution to local potential
     Polarization accuracy = 6.3E-12, # of iterations =  43

     total cpu time spent up to now is    33954.5 secs

     total energy              =   -3430.03734573 Ry
     estimated scf accuracy    <       0.00070612 Ry
     electrostatic embedding   =      -0.03392573 Ry
     cavitation energy         =       0.02098686 Ry
     PV energy                 =      -0.07847830 Ry
     correction to one-el term =     197.88908838 Ry

     iteration #  6     ecut=    50.00 Ry     beta= 0.70
     Davidson diagonalization with overlap
     ethr =  1.95E-07,  avg # of iterations =  1.0

     negative rho (up, down):  2.708E-03 0.000E+00

     add environment contribution to local potential
     Polarization accuracy = 4.6E-12, # of iterations =  43

     total cpu time spent up to now is    34705.6 secs

     total energy              =   -3430.03736652 Ry
     estimated scf accuracy    <       0.00044551 Ry
     electrostatic embedding   =      -0.03366880 Ry
     cavitation energy         =       0.02098493 Ry
     PV energy                 =      -0.07848655 Ry
     correction to one-el term =     197.94768391 Ry

     iteration #  7     ecut=    50.00 Ry     beta= 0.70
     Davidson diagonalization with overlap
     ethr =  1.23E-07,  avg # of iterations =  1.0

     negative rho (up, down):  2.454E-03 0.000E+00

     add environment contribution to local potential
     Polarization accuracy = 4.8E-12, # of iterations =  43

     total cpu time spent up to now is    35520.7 secs

     total energy              =   -3430.03736160 Ry
     estimated scf accuracy    <       0.00015492 Ry
     electrostatic embedding   =      -0.03342135 Ry
     cavitation energy         =       0.02098331 Ry
     PV energy                 =      -0.07849705 Ry
     correction to one-el term =     197.99318090 Ry

     iteration #  8     ecut=    50.00 Ry     beta= 0.70
     Davidson diagonalization with overlap
     ethr =  4.28E-08,  avg # of iterations =  2.0

     negative rho (up, down):  2.159E-03 0.000E+00

     add environment contribution to local potential
     Polarization accuracy = 5.5E-12, # of iterations =  43

     total cpu time spent up to now is    36379.4 secs

     total energy              =   -3430.03736518 Ry
     estimated scf accuracy    <       0.00006201 Ry
     electrostatic embedding   =      -0.03300139 Ry
     cavitation energy         =       0.02098122 Ry
     PV energy                 =      -0.07851764 Ry
     correction to one-el term =     198.04952752 Ry

     iteration #  9     ecut=    50.00 Ry     beta= 0.70
     Davidson diagonalization with overlap
     ethr =  1.71E-08,  avg # of iterations =  2.0

     negative rho (up, down):  1.484E-03 0.000E+00

     add environment contribution to local potential
     Polarization accuracy = 6.2E-12, # of iterations =  43

     total cpu time spent up to now is    37091.1 secs

     total energy              =   -3430.03735762 Ry
     estimated scf accuracy    <       0.00001596 Ry
     electrostatic embedding   =      -0.03274296 Ry
     cavitation energy         =       0.02098108 Ry
     PV energy                 =      -0.07853048 Ry
     correction to one-el term =     198.07460269 Ry

     iteration # 10     ecut=    50.00 Ry     beta= 0.70
     Davidson diagonalization with overlap
     ethr =  4.41E-09,  avg # of iterations =  2.0

     negative rho (up, down):  1.130E-03 0.000E+00

     add environment contribution to local potential
     Polarization accuracy = 5.2E-12, # of iterations =  43

     total cpu time spent up to now is    37738.8 secs

     total energy              =   -3430.03735547 Ry
     estimated scf accuracy    <       0.00000554 Ry
     electrostatic embedding   =      -0.03241442 Ry
     cavitation energy         =       0.02098253 Ry
     PV energy                 =      -0.07854687 Ry
     correction to one-el term =     198.08490807 Ry

     iteration # 11     ecut=    50.00 Ry     beta= 0.70
     Davidson diagonalization with overlap
     ethr =  1.53E-09,  avg # of iterations =  1.0

     negative rho (up, down):  7.077E-04 0.000E+00

     add environment contribution to local potential
     Polarization accuracy = 4.5E-12, # of iterations =  43

     total cpu time spent up to now is    38494.9 secs

     total energy              =   -3430.03735202 Ry
     estimated scf accuracy    <       0.00000287 Ry
     electrostatic embedding   =      -0.03237535 Ry
     cavitation energy         =       0.02098396 Ry
     PV energy                 =      -0.07854965 Ry
     correction to one-el term =     198.06633540 Ry

     iteration # 12     ecut=    50.00 Ry     beta= 0.70
     Davidson diagonalization with overlap
     ethr =  7.92E-10,  avg # of iterations =  2.0

     negative rho (up, down):  4.169E-04 0.000E+00

     add environment contribution to local potential
     Polarization accuracy = 3.6E-12, # of iterations =  43

     total cpu time spent up to now is    39161.7 secs

     total energy              =   -3430.03735031 Ry
     estimated scf accuracy    <       0.00000152 Ry
     electrostatic embedding   =      -0.03232521 Ry
     cavitation energy         =       0.02098586 Ry
     PV energy                 =      -0.07855271 Ry
     correction to one-el term =     198.04496462 Ry

     iteration # 13     ecut=    50.00 Ry     beta= 0.70
     Davidson diagonalization with overlap
     ethr =  4.19E-10,  avg # of iterations =  2.0

     negative rho (up, down):  2.991E-04 0.000E+00

     add environment contribution to local potential
     Polarization accuracy = 2.9E-12, # of iterations =  43

     total cpu time spent up to now is    39945.8 secs

     total energy              =   -3430.03735002 Ry
     estimated scf accuracy    <       0.00000044 Ry
     electrostatic embedding   =      -0.03236204 Ry
     cavitation energy         =       0.02098757 Ry
     PV energy                 =      -0.07855195 Ry
     correction to one-el term =     198.01623512 Ry

     iteration # 14     ecut=    50.00 Ry     beta= 0.70
     Davidson diagonalization with overlap
     ethr =  1.21E-10,  avg # of iterations =  2.0

     negative rho (up, down):  2.069E-04 0.000E+00

     add environment contribution to local potential
     Polarization accuracy = 2.4E-12, # of iterations =  43

     total cpu time spent up to now is    40661.7 secs

     total energy              =   -3430.03734993 Ry
     estimated scf accuracy    <       0.00000015 Ry
     electrostatic embedding   =      -0.03239802 Ry
     cavitation energy         =       0.02098838 Ry
     PV energy                 =      -0.07855094 Ry
     correction to one-el term =     198.00087255 Ry

     iteration # 15     ecut=    50.00 Ry     beta= 0.70
     Davidson diagonalization with overlap
     ethr =  4.13E-11,  avg # of iterations =  3.0

     negative rho (up, down):  1.798E-04 0.000E+00

     add environment contribution to local potential
     Polarization accuracy = 2.6E-12, # of iterations =  42

     total cpu time spent up to now is    41327.5 secs

     total energy              =   -3430.03734979 Ry
     estimated scf accuracy    <       0.00000013 Ry
     electrostatic embedding   =      -0.03243932 Ry
     cavitation energy         =       0.02098907 Ry
     PV energy                 =      -0.07855023 Ry
     correction to one-el term =     197.98631778 Ry

     iteration # 16     ecut=    50.00 Ry     beta= 0.70
     Davidson diagonalization with overlap
     ethr =  3.51E-11,  avg # of iterations =  1.0

     negative rho (up, down):  1.688E-04 0.000E+00

     add environment contribution to local potential
     Polarization accuracy = 2.2E-12, # of iterations =  43

     total cpu time spent up to now is    42001.7 secs

     total energy              =   -3430.03734972 Ry
     estimated scf accuracy    <       0.00000003 Ry
     electrostatic embedding   =      -0.03244708 Ry
     cavitation energy         =       0.02098924 Ry
     PV energy                 =      -0.07855056 Ry
     correction to one-el term =     197.98302771 Ry

     iteration # 17     ecut=    50.00 Ry     beta= 0.70
     Davidson diagonalization with overlap
     ethr =  9.32E-12,  avg # of iterations =  2.0

     negative rho (up, down):  1.609E-04 0.000E+00

     add environment contribution to local potential
     Polarization accuracy = 2.1E-12, # of iterations =  43

     total cpu time spent up to now is    42648.6 secs

     total energy              =   -3430.03734970 Ry
     estimated scf accuracy    <       0.00000003 Ry
     electrostatic embedding   =      -0.03246260 Ry
     cavitation energy         =       0.02098932 Ry
     PV energy                 =      -0.07855062 Ry
     correction to one-el term =     197.98065169 Ry

     iteration # 18     ecut=    50.00 Ry     beta= 0.70
     Davidson diagonalization with overlap
     ethr =  9.30E-12,  avg # of iterations =  2.0

     negative rho (up, down):  1.566E-04 0.000E+00

     add environment contribution to local potential
     Polarization accuracy = 2.1E-12, # of iterations =  43

     total cpu time spent up to now is    43383.2 secs

     total energy              =   -3430.03734968 Ry
     estimated scf accuracy    <       0.00000001 Ry
     electrostatic embedding   =      -0.03247211 Ry
     cavitation energy         =       0.02098939 Ry
     PV energy                 =      -0.07855060 Ry
     correction to one-el term =     197.97883982 Ry

     iteration # 19     ecut=    50.00 Ry     beta= 0.70
     Davidson diagonalization with overlap
     ethr =  3.69E-12,  avg # of iterations =  2.0

     negative rho (up, down):  1.547E-04 0.000E+00

     add environment contribution to local potential
     Polarization accuracy = 2.4E-12, # of iterations =  43

     total cpu time spent up to now is    44054.6 secs

     total energy              =   -3430.03734967 Ry
     estimated scf accuracy    <          3.7E-09 Ry
     electrostatic embedding   =      -0.03248030 Ry
     cavitation energy         =       0.02098941 Ry
     PV energy                 =      -0.07855067 Ry
     correction to one-el term =     197.97778069 Ry

     iteration # 20     ecut=    50.00 Ry     beta= 0.70
     Davidson diagonalization with overlap
     ethr =  1.02E-12,  avg # of iterations =  3.0

     negative rho (up, down):  1.575E-04 0.000E+00

[...]
     atom   18 type  2   force =    -0.08079842    0.00000865   -0.00042535
     atom   19 type  1   force =     0.07958657    0.25356166   -0.00007521
     atom   20 type  1   force =    -0.06008991    0.25569808   -0.00007508
     atom   21 type  2   force =     1.32506537    0.00011501   -0.00024335
     atom   22 type  2   force =    -0.65403902    0.00011517   -0.00024238
     atom   23 type  1   force =     0.07958797   -0.25370279   -0.00007521
     atom   24 type  1   force =    -0.06008830   -0.25583931   -0.00007508
     atom   25 type  1   force =    -0.10372504    0.00000993   24.99501765
     atom   26 type  1   force =    -0.05272103    0.00000950   27.19498317
     atom   27 type  1   force =    -0.02530003   -0.00000218   39.10533912
     atom   28 type  1   force =    -0.01387645   -0.00000218   39.07271392
     atom   29 type  2   force =     0.20200941   -0.00000246  178.10905305
     atom   30 type  2   force =    -0.16806805   -0.00000245  178.20558182
     atom   31 type  1   force =     0.33048438   -0.66507588   62.65380914
     atom   32 type  1   force =    -0.23392044   -0.70685071   62.80464374
     atom   33 type  2   force =    -0.03145816    0.00000338  169.82537012
     atom   34 type  2   force =    -0.04455815    0.00000288  174.48242684
     atom   35 type  1   force =     0.33048438    0.66507661   62.65380651
     atom   36 type  1   force =    -0.23392045    0.70685142   62.80464113
     atom   37 type  1   force =    -0.06737508   -0.00000033   94.84546626
     atom   38 type  1   force =     0.06734447   -0.00000033   94.90965519
     atom   39 type  1   force =    -3.00739847    0.00000016   97.00052471
     atom   40 type  1   force =     0.10384062    0.00000017  102.21474881
     atom   41 type  3   force =     2.69578718    0.00000002  -16.83025228
     atom   42 type  3   force =     2.69588973    0.00000002   16.83029283
     The local contribution  to forces
     atom    1 type  1   force =     1.14650425    0.00000000   96.76818614
     atom    2 type  1   force =    -0.00394366   -0.00000000  100.84362676
     atom    3 type  1   force =     0.03404489   -0.00000000   93.76487600
     atom    4 type  1   force =    -0.04000283   -0.00000000   93.81995173
     atom    5 type  2   force =    -0.19240156    0.00000000  178.19367090
     atom    6 type  2   force =     0.16106644   -0.00000000  178.23994724
     atom    7 type  1   force =    -0.36277904    0.74130897   62.79299381
     atom    8 type  1   force =     0.28814107    0.78674902   62.88635483
     atom    9 type  2   force =    -0.02419341    0.00000000  169.82457062
     atom   10 type  2   force =     0.09099246   -0.00000000  174.54662987
     atom   11 type  1   force =    -0.36277904   -0.74130894   62.79299381
     atom   12 type  1   force =     0.28814107   -0.78674902   62.88635483
     atom   13 type  1   force =     0.02252775    0.00000000   39.03109989
     atom   14 type  1   force =     0.01557904    0.00000000   39.01014781
     atom   15 type  1   force =     0.10776183   -0.00000000   25.04655426
     atom   16 type  1   force =     0.05809675    0.00000000   26.98665151
     atom   17 type  2   force =     0.12899365    0.00000000   -0.00589220
     atom   18 type  2   force =     0.09284211    0.00000000   -0.00590144
     atom   19 type  1   force =    -0.09634372   -0.33030332   -0.00247785
     atom   20 type  1   force =     0.06018659   -0.33088804   -0.00247826
     atom   21 type  2   force =    -1.33017361   -0.00000000   -0.00606082
     atom   22 type  2   force =     0.63208365    0.00000000   -0.00606370
     atom   23 type  1   force =    -0.09634499    0.32995670   -0.00247785
     atom   24 type  1   force =     0.06018505    0.33054156   -0.00247826
     atom   25 type  1   force =     0.10775192    0.00000000  -25.04831879
     atom   26 type  1   force =     0.05809256    0.00000000  -26.98843970
     atom   27 type  1   force =     0.02252759    0.00000000  -39.03285932
     atom   28 type  1   force =     0.01557910    0.00000000  -39.01190481
     atom   29 type  2   force =    -0.19239451   -0.00000000 -178.19981594
     atom   30 type  2   force =     0.16106035   -0.00000000 -178.24609416
     atom   31 type  1   force =    -0.36275449    0.74129299  -62.79545737
     atom   32 type  1   force =     0.28811919    0.78673478  -62.88882203
     atom   33 type  2   force =    -0.02420665   -0.00000000 -169.83041064
     atom   34 type  2   force =     0.09098359    0.00000000 -174.55238749
     atom   35 type  1   force =    -0.36275449   -0.74129296  -62.79545737
     atom   36 type  1   force =     0.28811919   -0.78673478  -62.88882203
     atom   37 type  1   force =     0.03404332    0.00000000  -93.76879314
     atom   38 type  1   force =    -0.04000149    0.00000000  -93.82387116
     atom   39 type  1   force =     1.14654049    0.00000000  -96.76971613
     atom   40 type  1   force =    -0.00394905    0.00000000 -100.84499686
     atom   41 type  3   force =    -2.63317659    0.00000000   16.80259167
     atom   42 type  3   force =    -2.63317659    0.00000000  -16.80259167
     The core correction contribution to forces
     atom    1 type  1   force =    -0.01779543    0.00000000   -0.00265679
     atom    2 type  1   force =     0.00016862    0.00000000   -0.01128802
     atom    3 type  1   force =    -0.00006638   -0.00000000   -0.01088044
     atom    4 type  1   force =     0.00003425   -0.00000000   -0.01092115
     atom    5 type  2   force =     0.00000000    0.00000000    0.00000000
     atom    6 type  2   force =     0.00000000    0.00000000    0.00000000
     atom    7 type  1   force =    -0.00055269    0.00027728    0.00123792
     atom    8 type  1   force =     0.00079583    0.00027008    0.00092480
     atom    9 type  2   force =     0.00000000    0.00000000    0.00000000
     atom   10 type  2   force =     0.00000000    0.00000000    0.00000000
     atom   11 type  1   force =    -0.00055269   -0.00027728    0.00123792
     atom   12 type  1   force =     0.00079583   -0.00027008    0.00092480
     atom   13 type  1   force =     0.00002023   -0.00000000   -0.00064382
     atom   14 type  1   force =    -0.00002447    0.00000000   -0.00051089
     atom   15 type  1   force =     0.00010724   -0.00000000    0.00017541
     atom   16 type  1   force =     0.00004206   -0.00000000   -0.00274275
     atom   17 type  2   force =     0.00000000    0.00000000    0.00000000
     atom   18 type  2   force =     0.00000000    0.00000000    0.00000000
     atom   19 type  1   force =    -0.00017292   -0.00023108   -0.00000211
     atom   20 type  1   force =    -0.00002969   -0.00020219   -0.00000213
     atom   21 type  2   force =     0.00000000    0.00000000    0.00000000
     atom   22 type  2   force =     0.00000000    0.00000000    0.00000000
     atom   23 type  1   force =    -0.00017292    0.00023058   -0.00000211
     atom   24 type  1   force =    -0.00002969    0.00020169   -0.00000213
     atom   25 type  1   force =     0.00010720   -0.00000000   -0.00017753
     atom   26 type  1   force =     0.00004206   -0.00000000    0.00274073
     atom   27 type  1   force =     0.00002023   -0.00000000    0.00064143
     atom   28 type  1   force =    -0.00002447    0.00000000    0.00050846
     atom   29 type  2   force =     0.00000000    0.00000000    0.00000000
     atom   30 type  2   force =     0.00000000    0.00000000    0.00000000
     atom   31 type  1   force =    -0.00055264    0.00027711   -0.00123959
     atom   32 type  1   force =     0.00079582    0.00026995   -0.00092650
     atom   33 type  2   force =     0.00000000    0.00000000    0.00000000
     atom   34 type  2   force =     0.00000000    0.00000000    0.00000000
     atom   35 type  1   force =    -0.00055264   -0.00027711   -0.00123959
     atom   36 type  1   force =     0.00079582   -0.00026995   -0.00092650
     atom   37 type  1   force =    -0.00006638   -0.00000000    0.01087563
     atom   38 type  1   force =     0.00003426   -0.00000000    0.01091645
     atom   39 type  1   force =    -0.01779617    0.00000000    0.00265436
     atom   40 type  1   force =     0.00016863   -0.00000000    0.01128640
     atom   41 type  3   force =     0.00000000    0.00000000    0.00000000
     atom   42 type  3   force =     0.00000000    0.00000000    0.00000000
     The Hubbard contrib.    to forces
     atom    1 type  1   force =     0.00000000    0.00000000    0.00000000
     atom    2 type  1   force =     0.00000000    0.00000000    0.00000000
     atom    3 type  1   force =     0.00000000    0.00000000    0.00000000
     atom    4 type  1   force =     0.00000000    0.00000000    0.00000000
     atom    5 type  2   force =     0.00000000    0.00000000    0.00000000
     atom    6 type  2   force =     0.00000000    0.00000000    0.00000000
     atom    7 type  1   force =     0.00000000    0.00000000    0.00000000
     atom    8 type  1   force =     0.00000000    0.00000000    0.00000000
     atom    9 type  2   force =     0.00000000    0.00000000    0.00000000
     atom   10 type  2   force =     0.00000000    0.00000000    0.00000000
     atom   11 type  1   force =     0.00000000    0.00000000    0.00000000
     atom   12 type  1   force =     0.00000000    0.00000000    0.00000000
     atom   13 type  1   force =     0.00000000    0.00000000    0.00000000
     atom   14 type  1   force =     0.00000000    0.00000000    0.00000000
     atom   15 type  1   force =     0.00000000    0.00000000    0.00000000
     atom   16 type  1   force =     0.00000000    0.00000000    0.00000000
     atom   17 type  2   force =     0.00000000    0.00000000    0.00000000
     atom   18 type  2   force =     0.00000000    0.00000000    0.00000000
     atom   19 type  1   force =     0.00000000    0.00000000    0.00000000
     atom   20 type  1   force =     0.00000000    0.00000000    0.00000000
     atom   21 type  2   force =     0.00000000    0.00000000    0.00000000
     atom   22 type  2   force =     0.00000000    0.00000000    0.00000000
     atom   23 type  1   force =     0.00000000    0.00000000    0.00000000
     atom   24 type  1   force =     0.00000000    0.00000000    0.00000000
     atom   25 type  1   force =     0.00000000    0.00000000    0.00000000
     atom   26 type  1   force =     0.00000000    0.00000000    0.00000000
     atom   27 type  1   force =     0.00000000    0.00000000    0.00000000
     atom   28 type  1   force =     0.00000000    0.00000000    0.00000000
     atom   29 type  2   force =     0.00000000    0.00000000    0.00000000
     atom   30 type  2   force =     0.00000000    0.00000000    0.00000000
     atom   31 type  1   force =     0.00000000    0.00000000    0.00000000
     atom   32 type  1   force =     0.00000000    0.00000000    0.00000000
     atom   33 type  2   force =     0.00000000    0.00000000    0.00000000
     atom   34 type  2   force =     0.00000000    0.00000000    0.00000000
     atom   35 type  1   force =     0.00000000    0.00000000    0.00000000
     atom   36 type  1   force =     0.00000000    0.00000000    0.00000000
     atom   37 type  1   force =     0.00000000    0.00000000    0.00000000
     atom   38 type  1   force =     0.00000000    0.00000000    0.00000000
     atom   39 type  1   force =     0.00000000    0.00000000    0.00000000
     atom   40 type  1   force =     0.00000000    0.00000000    0.00000000
     atom   41 type  3   force =     0.00000000    0.00000000    0.00000000
     atom   42 type  3   force =     0.00000000    0.00000000    0.00000000
     The SCF correction term to forces
     atom    1 type  1   force =     0.00000158   -0.00000000    0.00000048
     atom    2 type  1   force =    -0.00000107   -0.00000000    0.00000027
     atom    3 type  1   force =    -0.00000048    0.00000000    0.00000003
     atom    4 type  1   force =     0.00000059    0.00000000    0.00000007
     atom    5 type  2   force =    -0.00000052    0.00000000    0.00000092
     atom    6 type  2   force =     0.00000043    0.00000000    0.00000059
     atom    7 type  1   force =    -0.00000068    0.00000183   -0.00000003
     atom    8 type  1   force =     0.00000062    0.00000094    0.00000009
     atom    9 type  2   force =     0.00000081   -0.00000000   -0.00000096
     atom   10 type  2   force =    -0.00000075   -0.00000000   -0.00000021
     atom   11 type  1   force =    -0.00000068   -0.00000183   -0.00000003
     atom   12 type  1   force =     0.00000062   -0.00000094    0.00000009
     atom   13 type  1   force =    -0.00000023    0.00000000   -0.00000029
     atom   14 type  1   force =     0.00000030    0.00000000    0.00000048
     atom   15 type  1   force =     0.00000062   -0.00000000   -0.00000073
     atom   16 type  1   force =    -0.00000090   -0.00000000    0.00000008
     atom   17 type  2   force =     0.00000046    0.00000000    0.00000001
     atom   18 type  2   force =    -0.00000037   -0.00000000    0.00000001
     atom   19 type  1   force =     0.00000052    0.00000139    0.00000000
     atom   20 type  1   force =    -0.00000047    0.00000039    0.00000000
     atom   21 type  2   force =     0.00000009   -0.00000000    0.00000001
     atom   22 type  2   force =    -0.00000003   -0.00000000    0.00000001
     atom   23 type  1   force =     0.00000052   -0.00000139    0.00000000
     atom   24 type  1   force =    -0.00000047   -0.00000039    0.00000000
     atom   25 type  1   force =     0.00000062   -0.00000000    0.00000073
     atom   26 type  1   force =    -0.00000090   -0.00000000   -0.00000007
     atom   27 type  1   force =    -0.00000022    0.00000000    0.00000030
     atom   28 type  1   force =     0.00000030    0.00000000   -0.00000047
     atom   29 type  2   force =    -0.00000052    0.00000000   -0.00000090
     atom   30 type  2   force =     0.00000043    0.00000000   -0.00000057
     atom   31 type  1   force =    -0.00000068    0.00000183    0.00000004
     atom   32 type  1   force =     0.00000062    0.00000094   -0.00000009
     atom   33 type  2   force =     0.00000081   -0.00000000    0.00000098
     atom   34 type  2   force =    -0.00000075   -0.00000000    0.00000022
     atom   35 type  1   force =    -0.00000068   -0.00000183    0.00000004
     atom   36 type  1   force =     0.00000062   -0.00000094   -0.00000009
     atom   37 type  1   force =    -0.00000048    0.00000000   -0.00000003
     atom   38 type  1   force =     0.00000059   -0.00000000   -0.00000007
     atom   39 type  1   force =     0.00000158   -0.00000000   -0.00000048
     atom   40 type  1   force =    -0.00000107   -0.00000000   -0.00000027
     atom   41 type  3   force =    -0.00000010   -0.00000000    0.00000021
     atom   42 type  3   force =    -0.00000010    0.00000000   -0.00000021

     Total force =     0.000938     Total SCF correction =     0.000007
     Energy error            =      2.3E-06 Ry
     Gradient error          =      4.0E-04 Ry/Bohr

     number of scf cycles    =  21
     number of bfgs steps    =  20

     energy             old  =   -3430.0432249591 Ry
     energy             new  =   -3430.0432272106 Ry

     CASE: energy            _new < energy            _old

     new trust radius        =       0.0015971226 bohr
     new conv_thr            =            1.0E-11 Ry


ATOMIC_POSITIONS (crystal)
O            -0.0095732269        0.5000000000        0.2729507025
O             0.4981939110        0.5000000000        0.2750583604
O             0.0001070505        0.0000000000        0.3068286099
O             0.4996061093        0.0000000000        0.3065591881
Ru            0.2501678607        0.0000000000        0.3538873920
Ru            0.7495694243        0.0000000000        0.3538958431
O             0.2481093820        0.3131166918        0.3596781708
O             0.7515317284        0.3130245254        0.3595208828
Ru           -0.0000800830        0.5000000000        0.3590551030
Ru            0.5005548571        0.5000000000        0.3524807554
O             0.2481093820        0.6868833081        0.3596781708
O             0.7515317284        0.6869754746        0.3595208828
O            -0.0000888121        0.0000000000        0.4116645184
O             0.4999987618        0.0000000000        0.4116251305
O             0.0040707022        0.5000000000        0.4466634108
O             0.5033576871        0.5000000000        0.4441629992
Ru            0.0001476750        0.0000000000        0.5000010000
Ru            0.5001632818        0.0000000000        0.5000010000
O             0.2498729242        0.1865460211        0.5000010000
O             0.7493323173        0.1866210597        0.5000010000
Ru            0.2551361711        0.5000000000        0.5000010000
Ru            0.7501913003        0.5000000000        0.5000010000
O             0.2498729242        0.8134549789        0.5000010000
O             0.7493323173        0.8133799403        0.5000010000
O             0.0040707022        0.5000000000        0.5533375892
O             0.5033576871        0.5000000000        0.5558380008
O            -0.0000888121        0.0000000000        0.5883364816
O             0.4999987618        0.0000000000        0.5883758695
Ru            0.2501678607        0.0000000000        0.6461136080
Ru            0.7495694243        0.0000000000        0.6461051569
O             0.2481093820        0.3131166918        0.6403228292
O             0.7515317284        0.3130245254        0.6404801172
Ru           -0.0000800830        0.5000000000        0.6409458970
Ru            0.5005548571        0.5000000000        0.6475202446
O             0.2481093820        0.6868833081        0.6403228292
O             0.7515317284        0.6869754746        0.6404801172
O             0.0001070505        0.0000000000        0.6931733901
O             0.4996061093        0.0000000000        0.6934428119
O            -0.0095732269        0.5000000000        0.7270502975
O             0.4981939110        0.5000000000        0.7249426396
H             0.1204440814        0.5000000000        0.2510137474
H             0.1204440814        0.5000000000        0.7489862526



     Writing config-only to output data dir /storage/home/mgm6007/ixd4/Maria/StrainJin_Files/RuO2-110-0-0/RuO2-110-0-0.save/
     NEW-OLD atomic charge density approx. for the potential

     Check: negative core charge=   -0.000001

     negative rho (up, down):  1.561E-04 0.000E+00

     add environment contribution to local potential
     Polarization accuracy = 1.4E-12, # of iterations =  43

     total cpu time spent up to now is   209764.4 secs

     per-process dynamical memory:   226.4 Mb

     Self-consistent Calculation

     iteration #  1     ecut=    50.00 Ry     beta= 0.70
     Davidson diagonalization with overlap
     ethr =  1.00E-06,  avg # of iterations =  2.0

     Threshold (ethr) on eigenvalues was too large:
     Diagonalizing with lowered threshold

     Davidson diagonalization with overlap
     ethr =  5.13E-10,  avg # of iterations =  4.0

     negative rho (up, down):  1.581E-04 0.000E+00

     add environment contribution to local potential
     Polarization accuracy = 8.9E-12, # of iterations =  42

     total cpu time spent up to now is   209949.2 secs

     total energy              =   -3430.04322959 Ry
     estimated scf accuracy    <       0.00000220 Ry
     electrostatic embedding   =      -0.03353612 Ry
     cavitation energy         =       0.02087796 Ry
     PV energy                 =      -0.07852841 Ry
     correction to one-el term =     197.75846392 Ry

     iteration #  2     ecut=    50.00 Ry     beta= 0.70
     Davidson diagonalization with overlap
     ethr =  6.08E-10,  avg # of iterations =  2.0

     negative rho (up, down):  1.580E-04 0.000E+00

     add environment contribution to local potential
     Polarization accuracy = 1.6E-12, # of iterations =  43
