
     Program PWSCF v.7.2 starts on 19Jul2023 at 12:39:13 
        Git branch: heads/qe-7.2
        Last git commit: b4c5e8deeb7d1863e7553a87b45f8d22c21926a5
        Last git commit date: Mon Mar 27 16:12:09 2023 +0000
        Last git commit subject: Merge branch 'merge_fix_hubbard' into 'develop'

     This program is part of the open-source Quantum ESPRESSO suite
     for quantum simulation of materials; please cite
         "P. Giannozzi et al., J. Phys.:Condens. Matter 21 395502 (2009);
         "P. Giannozzi et al., J. Phys.:Condens. Matter 29 465901 (2017);
         "P. Giannozzi et al., J. Chem. Phys. 152 154105 (2020);
          URL http://www.quantum-espresso.org", 
     in publications or presentations arising from this work. More details at
     http://www.quantum-espresso.org/quote

     Parallel version (MPI), running on    20 processors

     MPI processes distributed on     1 nodes
     93062 MiB available memory on the printing compute node when the environment starts
 
     Reading input from RuO2-110-0-25.in

     Current dimensions of program PWSCF are:
     Max number of different atomic species (ntypx) = 10
     Max number of k-points (npk) =  40000
     Max angular momentum in pseudopotentials (lmaxx) =  4
 
     Reading input from environ.in:
     * Environ restarting
     * setting up water environment
     * using electronic solvent mode
     * setting boundary derivatives method to SCCS default
     
     file O.pbe-n-kjpaw_psl.0.1.UPF: wavefunction(s)  2P renormalized
     Message from routine setup:
     using ibrav=0 with symmetry is DISCOURAGED, use correct ibrav instead
 
     R & G space division:  proc/nbgrp/npool/nimage =      20
     Subspace diagonalization in iterative solution of the eigenvalue problem:
     one sub-group per band group will be used
     scalapack distributed-memory algorithm (size of sub-group:  2*  2 procs)

 
     Parallelization info
     --------------------
     sticks:   dense  smooth     PW     G-vecs:    dense   smooth      PW
     Min         282     113     29                56190    14217    1913
     Max         283     114     30                56201    14227    1932
     Sum        5657    2263    593              1123933   284439   38425
 
     Using Slab Decomposition
 


     bravais-lattice index     =            0
     lattice parameter (alat)  =      12.1041  a.u.
     unit-cell volume          =    5954.5483 (a.u.)^3
     number of atoms/cell      =           44
     number of atomic types    =            3
     number of electrons       =       364.00
     number of Kohn-Sham states=          218
     kinetic-energy cutoff     =      50.0000  Ry
     charge density cutoff     =     500.0000  Ry
     scf convergence threshold =      1.0E-09
     mixing beta               =       0.7000
     number of iterations used =            8  local-TF  mixing
     energy convergence thresh.=      1.0E-04
     force convergence thresh. =      1.0E-04
     Exchange-correlation= PBE
                           (   1   4   3   4   0   0   0)
     nstep                     =          200


     ================================================================================
 
                                  Environ Setup Summary

     ================================================================================
 
     Please cite

          O. Andreussi, I. Dabo and N. Marzari, J. Chem. Phys. 136, 064102 (2012)

     in publications or presentations arising from this work.

     ================================================================================
 
     Parameters
     ==========

     compensation onset threshold      =               0.1000E+00
     static permittivity               =                    78.30
     surface tension in input (dyn/cm) =                    47.90
     surface tension in internal units =               0.6153E-04
     external pressure in input (GPa)  =                    -0.36
     external pressure in inter. units =              -0.2447E-04

     Solvent Boundary
     ================

     solvent mode                      =               electronic
     derivatives method                =                    chain
     numerical core for derivatives    =                      fft
     switching function adopted        =                     SCCS
     density limit for vacuum region   =               0.5000E-02
     density limit for bulk solvent    =               0.1000E-03

     Electrostatic Setup
     ===================

     electrostatic problem to solve    =              generalized
     numerical solver adopted          =                       cg
     type of auxiliary density adopted =                     none
     numerical core for poisson        =                      fft
     type of pbc corrections           =                parabolic
     numerical core for corrections    =                      1da

     ================================================================================
 

     celldm(1)=  12.104053  celldm(2)=   0.000000  celldm(3)=   0.000000
     celldm(4)=   0.000000  celldm(5)=   0.000000  celldm(6)=   0.000000

     crystal axes: (cart. coord. in units of alat)
               a(1) = (   1.000000   0.000000   0.000000 )  
               a(2) = (   0.000000   0.971735   0.000000 )  
               a(3) = (   0.000000   0.000000   3.455479 )  

     reciprocal axes: (cart. coord. in units 2 pi/alat)
               b(1) = (  1.000000  0.000000  0.000000 )  
               b(2) = (  0.000000  1.029087  0.000000 )  
               b(3) = (  0.000000  0.000000  0.289395 )  


     PseudoPot. # 1 for O  read from file:
     /gpfs/group/ixd4/default/Simon/pseudopotentials/materialscloud/SSSP_1.3.0_PBE_efficiency/O.pbe-n-kjpaw_psl.0.1.UPF
     MD5 check sum: 0234752ac141de4415c5fc33072bef88
     Pseudo is Projector augmented-wave + core cor, Zval =  6.0
     Generated using "atomic" code by A. Dal Corso  v.5.0.99 svn rev. 10869
     Shape of augmentation charge: BESSEL
     Using radial grid of 1095 points,  4 beta functions with: 
                l(1) =   0
                l(2) =   0
                l(3) =   1
                l(4) =   1
     Q(r) pseudized with 0 coefficients 


     PseudoPot. # 2 for Ru read from file:
     /gpfs/group/ixd4/default/Simon/pseudopotentials/materialscloud/SSSP_1.3.0_PBE_efficiency/Ru_ONCV_PBE-1.0.oncvpsp.upf
     MD5 check sum: be037bb81c227cfb9b1461a9f099f4bd
     Pseudo is Norm-conserving, Zval = 16.0
     Generated using ONCVPSP code by D. R. Hamann
     Using radial grid of 1458 points,  6 beta functions with: 
                l(1) =   0
                l(2) =   0
                l(3) =   1
                l(4) =   1
                l(5) =   2
                l(6) =   2

     PseudoPot. # 3 for H  read from file:
     /gpfs/group/ixd4/default/Simon/pseudopotentials/materialscloud/SSSP_1.3.0_PBE_efficiency/H.pbe-rrkjus_psl.1.0.0.UPF
     MD5 check sum: f52b6d4d1c606e5624b1dc7b2218f220
     Pseudo is Ultrasoft, Zval =  1.0
     Generated using "atomic" code by A. Dal Corso  v.5.1
     Using radial grid of  929 points,  2 beta functions with: 
                l(1) =   0
                l(2) =   0
     Q(r) pseudized with 0 coefficients 


     atomic species   valence    mass     pseudopotential
        O              6.00    15.99940     O ( 1.00)
        Ru            16.00   101.07000     Ru( 1.00)
        H              1.00     1.00794     H ( 1.00)

      8 Sym. Ops., with inversion, found ( 4 have fractional translation)



   Cartesian axes

     site n.     atom                  positions (alat units)
         1           O   tau(   1) = (   0.0000000   0.4858677   0.9012202  )
         2           O   tau(   2) = (   0.5000000   0.4858677   0.9012202  )
         3           O   tau(   3) = (   0.0000000   0.0000000   1.0164846  )
         4           O   tau(   4) = (   0.5000000   0.0000000   1.0164846  )
         5           Ru  tau(   5) = (   0.2500000   0.0000000   1.2151470  )
         6           Ru  tau(   6) = (   0.7500000   0.0000000   1.2151470  )
         7           O   tau(   7) = (   0.2500000   0.2975600   1.2151470  )
         8           O   tau(   8) = (   0.7500000   0.2975600   1.2151470  )
         9           Ru  tau(   9) = (   0.0000000   0.4858677   1.2151470  )
        10           Ru  tau(  10) = (   0.5000000   0.4858677   1.2151470  )
        11           O   tau(  11) = (   0.2500000   0.6741754   1.2151470  )
        12           O   tau(  12) = (   0.7500000   0.6741754   1.2151470  )
        13           O   tau(  13) = (   0.0000000   0.0000000   1.4138129  )
        14           O   tau(  14) = (   0.5000000   0.0000000   1.4138129  )
        15           O   tau(  15) = (   0.0000000   0.4858677   1.5290773  )
        16           O   tau(  16) = (   0.5000000   0.4858677   1.5290773  )
        17           Ru  tau(  17) = (   0.0000000   0.0000000   1.7277432  )
        18           Ru  tau(  18) = (   0.5000000   0.0000000   1.7277432  )
        19           O   tau(  19) = (   0.2500000   0.1883077   1.7277432  )
        20           O   tau(  20) = (   0.7500000   0.1883077   1.7277432  )
        21           Ru  tau(  21) = (   0.2500000   0.4858677   1.7277432  )
        22           Ru  tau(  22) = (   0.7500000   0.4858677   1.7277432  )
        23           O   tau(  23) = (   0.2500000   0.7834286   1.7277432  )
        24           O   tau(  24) = (   0.7500000   0.7834286   1.7277432  )
        25           O   tau(  25) = (   0.0000000   0.4858677   1.9264056  )
        26           O   tau(  26) = (   0.5000000   0.4858677   1.9264056  )
        27           O   tau(  27) = (   0.0000000   0.0000000   2.0416701  )
        28           O   tau(  28) = (   0.5000000   0.0000000   2.0416701  )
        29           Ru  tau(  29) = (   0.2500000   0.0000000   2.2403359  )
        30           Ru  tau(  30) = (   0.7500000   0.0000000   2.2403359  )
        31           O   tau(  31) = (   0.2500000   0.2975600   2.2403359  )
        32           O   tau(  32) = (   0.7500000   0.2975600   2.2403359  )
        33           Ru  tau(  33) = (   0.0000000   0.4858677   2.2403359  )
        34           Ru  tau(  34) = (   0.5000000   0.4858677   2.2403359  )
        35           O   tau(  35) = (   0.2500000   0.6741754   2.2403359  )
        36           O   tau(  36) = (   0.7500000   0.6741754   2.2403359  )
        37           O   tau(  37) = (   0.0000000   0.0000000   2.4390018  )
        38           O   tau(  38) = (   0.5000000   0.0000000   2.4390018  )
        39           O   tau(  39) = (   0.0000000   0.4858677   2.5542628  )
        40           O   tau(  40) = (   0.5000000   0.4858677   2.5542628  )
        41           H   tau(  41) = (   0.0000000   0.1109877   0.8993887  )
        42           H   tau(  42) = (   0.0000000   0.1109877   2.5560908  )
        43           H   tau(  43) = (   0.5000000   0.8607477   0.8993887  )
        44           H   tau(  44) = (   0.5000000   0.8607477   2.5560908  )

     number of k points=     1  Marzari-Vanderbilt smearing, width (Ry)=  0.0300
                       cart. coord. in units 2pi/alat
        k(    1) = (   0.2500000   0.2572717   0.0000000), wk =   2.0000000

     Dense  grid:  1123933 G-vectors     FFT dimensions: (  90,  90, 300)

     Smooth grid:   284439 G-vectors     FFT dimensions: (  60,  54, 192)

     Estimated max dynamical RAM per process >     172.76 MB

     Estimated total dynamical RAM >       3.37 GB

     Check: negative core charge=   -0.000001

     Initial potential from superposition of free atoms

     starting charge     363.9933, renormalised to     364.0000

     add environment contribution to local potential
     Polarization accuracy = 4.8E-12, # of iterations =  22

     negative rho (up, down):  3.601E-05 0.000E+00
     Starting wfcs are  236 randomized atomic wfcs
     Checking if some PAW data can be deallocated... 

     total cpu time spent up to now is     1099.4 secs

     per-process dynamical memory:   144.4 Mb

     Self-consistent Calculation

     iteration #  1     ecut=    50.00 Ry     beta= 0.70
     Davidson diagonalization with overlap
     ethr =  1.00E-02,  avg # of iterations =  2.0

     negative rho (up, down):  2.004E-08 0.000E+00

     total cpu time spent up to now is     1435.8 secs

     total energy              =   -3429.41460591 Ry
     estimated scf accuracy    <      11.48787298 Ry
     electrostatic embedding   =      -0.00166054 Ry
     cavitation energy         =       0.02022501 Ry
     PV energy                 =      -0.08721344 Ry
     correction to one-el term =     213.39769284 Ry

     iteration #  2     ecut=    50.00 Ry     beta= 0.70
     Davidson diagonalization with overlap
     ethr =  3.16E-03,  avg # of iterations =  2.0

     negative rho (up, down):  2.129E-07 0.000E+00

     total cpu time spent up to now is     1746.7 secs

     total energy              =   -3431.00686914 Ry
     estimated scf accuracy    <      29.92247560 Ry
     electrostatic embedding   =      -0.00218378 Ry
     cavitation energy         =       0.02063281 Ry
     PV energy                 =      -0.08646806 Ry
     correction to one-el term =     213.39836945 Ry

     iteration #  3     ecut=    50.00 Ry     beta= 0.70
     Davidson diagonalization with overlap
     ethr =  3.16E-03,  avg # of iterations =  2.0

     negative rho (up, down):  3.328E-08 0.000E+00

     total cpu time spent up to now is     2039.7 secs

     total energy              =   -3432.22623829 Ry
     estimated scf accuracy    <       6.14480508 Ry
     electrostatic embedding   =      -0.00267070 Ry
     cavitation energy         =       0.02023816 Ry
     PV energy                 =      -0.08771950 Ry
     correction to one-el term =     213.40057073 Ry

     iteration #  4     ecut=    50.00 Ry     beta= 0.70
     Davidson diagonalization with overlap
     ethr =  1.69E-03,  avg # of iterations =  1.0

     total cpu time spent up to now is     2364.4 secs

     total energy              =   -3432.37421640 Ry
     estimated scf accuracy    <       0.92911193 Ry
     electrostatic embedding   =      -0.00275885 Ry
     cavitation energy         =       0.02039161 Ry
     PV energy                 =      -0.08726378 Ry
     correction to one-el term =     213.40044998 Ry

     iteration #  5     ecut=    50.00 Ry     beta= 0.70
     Davidson diagonalization with overlap
     ethr =  2.55E-04,  avg # of iterations =  1.0

     add environment contribution to local potential
     Polarization accuracy = 3.7E-12, # of iterations =  34

     total cpu time spent up to now is     2631.8 secs

     total energy              =   -3432.41237135 Ry
     estimated scf accuracy    <       0.09988243 Ry
     electrostatic embedding   =      -0.00282181 Ry
     cavitation energy         =       0.02053523 Ry
     PV energy                 =      -0.08691107 Ry
     correction to one-el term =     213.40037965 Ry

     iteration #  6     ecut=    50.00 Ry     beta= 0.70
     Davidson diagonalization with overlap
     ethr =  2.74E-05,  avg # of iterations =  2.0

     total cpu time spent up to now is     2880.2 secs

     total energy              =   -3432.46196119 Ry
     estimated scf accuracy    <       0.74379882 Ry
     electrostatic embedding   =      -0.03154945 Ry
     cavitation energy         =       0.02093709 Ry
     PV energy                 =      -0.08605034 Ry
     correction to one-el term =     195.60984272 Ry

     iteration #  7     ecut=    50.00 Ry     beta= 0.70
     Davidson diagonalization with overlap
     ethr =  2.74E-05,  avg # of iterations =  1.0

     total cpu time spent up to now is     3204.9 secs

     total energy              =   -3432.44914459 Ry
     estimated scf accuracy    <       0.23217455 Ry
     electrostatic embedding   =      -0.03279029 Ry
     cavitation energy         =       0.02107068 Ry
     PV energy                 =      -0.08577534 Ry
     correction to one-el term =     195.61394690 Ry

     iteration #  8     ecut=    50.00 Ry     beta= 0.70
     Davidson diagonalization with overlap
     ethr =  2.74E-05,  avg # of iterations =  1.0

     add environment contribution to local potential
     Polarization accuracy = 2.1E-12, # of iterations =  39

     total cpu time spent up to now is     3506.2 secs

     total energy              =   -3432.44803715 Ry
     estimated scf accuracy    <       0.03065885 Ry
     electrostatic embedding   =      -0.03532621 Ry
     cavitation energy         =       0.02137262 Ry
     PV energy                 =      -0.08518119 Ry
     correction to one-el term =     195.62213209 Ry

     iteration #  9     ecut=    50.00 Ry     beta= 0.70
     Davidson diagonalization with overlap
     ethr =  8.42E-06,  avg # of iterations =  2.0

     add environment contribution to local potential
     Polarization accuracy = 7.8E-12, # of iterations =  42

     total cpu time spent up to now is     3835.7 secs

     total energy              =   -3432.46110717 Ry
     estimated scf accuracy    <       0.06171535 Ry
     electrostatic embedding   =      -0.05603274 Ry
     cavitation energy         =       0.02158950 Ry
     PV energy                 =      -0.08479239 Ry
     correction to one-el term =     189.63922344 Ry

     iteration # 10     ecut=    50.00 Ry     beta= 0.70
     Davidson diagonalization with overlap
     ethr =  8.42E-06,  avg # of iterations =  2.0

     add environment contribution to local potential
     Polarization accuracy = 3.2E-12, # of iterations =  43

     total cpu time spent up to now is     4186.0 secs

     total energy              =   -3432.46825457 Ry
     estimated scf accuracy    <       0.00872320 Ry
     electrostatic embedding   =      -0.07628860 Ry
     cavitation energy         =       0.02198324 Ry
     PV energy                 =      -0.08418870 Ry
     correction to one-el term =     186.56102028 Ry

     iteration # 11     ecut=    50.00 Ry     beta= 0.70
     Davidson diagonalization with overlap
     ethr =  2.40E-06,  avg # of iterations =  5.0

     add environment contribution to local potential
     Polarization accuracy = 2.9E-12, # of iterations =  43

     total cpu time spent up to now is     4521.0 secs

     total energy              =   -3432.46981720 Ry
     estimated scf accuracy    <       0.04554946 Ry
     electrostatic embedding   =      -0.08573171 Ry
     cavitation energy         =       0.02199689 Ry
     PV energy                 =      -0.08409444 Ry
     correction to one-el term =     185.92320874 Ry

     iteration # 12     ecut=    50.00 Ry     beta= 0.70
     Davidson diagonalization with overlap
     ethr =  2.40E-06,  avg # of iterations =  1.0

     add environment contribution to local potential
     Polarization accuracy = 5.4E-12, # of iterations =  42

     total cpu time spent up to now is     4853.0 secs

     total energy              =   -3432.46986667 Ry
     estimated scf accuracy    <       0.03151142 Ry
     electrostatic embedding   =      -0.08746108 Ry
     cavitation energy         =       0.02192961 Ry
     PV energy                 =      -0.08415132 Ry
     correction to one-el term =     186.05033227 Ry

     iteration # 13     ecut=    50.00 Ry     beta= 0.70
     Davidson diagonalization with overlap
     ethr =  2.40E-06,  avg # of iterations =  2.0

     negative rho (up, down):  4.995E-08 0.000E+00

     add environment contribution to local potential
     Polarization accuracy = 4.4E-12, # of iterations =  42

     total cpu time spent up to now is     5162.1 secs

     total energy              =   -3432.46997067 Ry
     estimated scf accuracy    <       0.02308132 Ry
     electrostatic embedding   =      -0.09041079 Ry
     cavitation energy         =       0.02183693 Ry
     PV energy                 =      -0.08423126 Ry
     correction to one-el term =     186.21902014 Ry

     iteration # 14     ecut=    50.00 Ry     beta= 0.70
     Davidson diagonalization with overlap
     ethr =  2.40E-06,  avg # of iterations =  1.0

     negative rho (up, down):  7.125E-08 0.000E+00

     add environment contribution to local potential
     Polarization accuracy = 4.4E-12, # of iterations =  42

     total cpu time spent up to now is     5442.8 secs

     total energy              =   -3432.46969847 Ry
     estimated scf accuracy    <       0.01796614 Ry
     electrostatic embedding   =      -0.09115022 Ry
     cavitation energy         =       0.02178979 Ry
     PV energy                 =      -0.08426510 Ry
     correction to one-el term =     186.42901819 Ry

     iteration # 15     ecut=    50.00 Ry     beta= 0.70
     Davidson diagonalization with overlap
     ethr =  2.40E-06,  avg # of iterations =  1.0

     negative rho (up, down):  1.181E-04 0.000E+00

     add environment contribution to local potential
     Polarization accuracy = 3.3E-12, # of iterations =  42

     total cpu time spent up to now is     5752.3 secs

     total energy              =   -3432.46972112 Ry
     estimated scf accuracy    <       0.00778125 Ry
     electrostatic embedding   =      -0.09044513 Ry
     cavitation energy         =       0.02177578 Ry
     PV energy                 =      -0.08426704 Ry
     correction to one-el term =     186.62959223 Ry

     iteration # 16     ecut=    50.00 Ry     beta= 0.70
     Davidson diagonalization with overlap
     ethr =  2.14E-06,  avg # of iterations =  1.0

     negative rho (up, down):  2.106E-04 0.000E+00

     add environment contribution to local potential
     Polarization accuracy = 3.3E-12, # of iterations =  42

     total cpu time spent up to now is     6099.1 secs

     total energy              =   -3432.46974588 Ry
     estimated scf accuracy    <       0.00177129 Ry
     electrostatic embedding   =      -0.08904231 Ry
     cavitation energy         =       0.02174628 Ry
     PV energy                 =      -0.08427745 Ry
     correction to one-el term =     186.92992860 Ry

     iteration # 17     ecut=    50.00 Ry     beta= 0.70
     Davidson diagonalization with overlap
     ethr =  4.87E-07,  avg # of iterations =  2.0

     negative rho (up, down):  2.007E-04 0.000E+00

     add environment contribution to local potential
     Polarization accuracy = 3.1E-12, # of iterations =  42

     total cpu time spent up to now is     6395.8 secs

     total energy              =   -3432.46993301 Ry
     estimated scf accuracy    <       0.00000995 Ry
     electrostatic embedding   =      -0.08583526 Ry
     cavitation energy         =       0.02175286 Ry
     PV energy                 =      -0.08425297 Ry
     correction to one-el term =     187.24522999 Ry

     iteration # 18     ecut=    50.00 Ry     beta= 0.70
     Davidson diagonalization with overlap
     ethr =  2.73E-09,  avg # of iterations = 10.0

     negative rho (up, down):  2.429E-05 0.000E+00

     add environment contribution to local potential
     Polarization accuracy = 3.1E-12, # of iterations =  42

     total cpu time spent up to now is     6646.9 secs

     total energy              =   -3432.46994110 Ry
     estimated scf accuracy    <       0.00000793 Ry
     electrostatic embedding   =      -0.08548909 Ry
     cavitation energy         =       0.02175080 Ry
     PV energy                 =      -0.08423971 Ry
     correction to one-el term =     187.31830850 Ry

     iteration # 19     ecut=    50.00 Ry     beta= 0.70
     Davidson diagonalization with overlap
     ethr =  2.18E-09,  avg # of iterations =  3.0

     negative rho (up, down):  2.455E-05 0.000E+00

     add environment contribution to local potential
     Polarization accuracy = 3.0E-12, # of iterations =  42

     total cpu time spent up to now is     6961.1 secs

     total energy              =   -3432.46994444 Ry
     estimated scf accuracy    <       0.00000373 Ry
     electrostatic embedding   =      -0.08488424 Ry
     cavitation energy         =       0.02175208 Ry
     PV energy                 =      -0.08423361 Ry
     correction to one-el term =     187.38347892 Ry

     iteration # 20     ecut=    50.00 Ry     beta= 0.70
     Davidson diagonalization with overlap
     ethr =  1.02E-09,  avg # of iterations =  4.0

     negative rho (up, down):  4.252E-05 0.000E+00

     add environment contribution to local potential
     Polarization accuracy = 2.8E-12, # of iterations =  42

     total cpu time spent up to now is     7284.9 secs

     total energy              =   -3432.46995023 Ry
     estimated scf accuracy    <       0.00000153 Ry
     electrostatic embedding   =      -0.08406540 Ry
     cavitation energy         =       0.02175078 Ry
     PV energy                 =      -0.08422919 Ry
     correction to one-el term =     187.49281715 Ry

     iteration # 21     ecut=    50.00 Ry     beta= 0.70
     Davidson diagonalization with overlap
     ethr =  4.20E-10,  avg # of iterations =  3.0

     negative rho (up, down):  1.080E-04 0.000E+00

     add environment contribution to local potential
     Polarization accuracy = 2.5E-12, # of iterations =  42

     total cpu time spent up to now is     7579.0 secs

     total energy              =   -3432.46995089 Ry
     estimated scf accuracy    <       0.00000063 Ry
     electrostatic embedding   =      -0.08376028 Ry
     cavitation energy         =       0.02174897 Ry
     PV energy                 =      -0.08423111 Ry
     correction to one-el term =     187.53934143 Ry

     iteration # 22     ecut=    50.00 Ry     beta= 0.70
     Davidson diagonalization with overlap
     ethr =  1.72E-10,  avg # of iterations =  3.0

     negative rho (up, down):  1.430E-04 0.000E+00

     add environment contribution to local potential
     Polarization accuracy = 2.4E-12, # of iterations =  42

     total cpu time spent up to now is     7883.8 secs

     total energy              =   -3432.46995069 Ry
     estimated scf accuracy    <       0.00000025 Ry
     electrostatic embedding   =      -0.08353737 Ry
     cavitation energy         =       0.02174655 Ry
     PV energy                 =      -0.08423388 Ry
     correction to one-el term =     187.57991165 Ry

     iteration # 23     ecut=    50.00 Ry     beta= 0.70
     Davidson diagonalization with overlap
     ethr =  6.85E-11,  avg # of iterations =  3.0

     negative rho (up, down):  1.502E-04 0.000E+00

     add environment contribution to local potential
     Polarization accuracy = 2.3E-12, # of iterations =  42

     total cpu time spent up to now is     8113.9 secs

     total energy              =   -3432.46995018 Ry
     estimated scf accuracy    <       0.00000024 Ry
     electrostatic embedding   =      -0.08338493 Ry
     cavitation energy         =       0.02174553 Ry
     PV energy                 =      -0.08423499 Ry
     correction to one-el term =     187.60408789 Ry

     iteration # 24     ecut=    50.00 Ry     beta= 0.70
     Davidson diagonalization with overlap
     ethr =  6.56E-11,  avg # of iterations =  1.0

     negative rho (up, down):  1.440E-04 0.000E+00

     add environment contribution to local potential
     Polarization accuracy = 2.1E-12, # of iterations =  43

     total cpu time spent up to now is     8387.3 secs

     total energy              =   -3432.46995047 Ry
     estimated scf accuracy    <       0.00000018 Ry
     electrostatic embedding   =      -0.08337764 Ry
     cavitation energy         =       0.02174527 Ry
     PV energy                 =      -0.08423611 Ry
     correction to one-el term =     187.60533311 Ry

     iteration # 25     ecut=    50.00 Ry     beta= 0.70
     Davidson diagonalization with overlap
     ethr =  4.97E-11,  avg # of iterations =  2.0

     negative rho (up, down):  1.520E-04 0.000E+00

     add environment contribution to local potential
     Polarization accuracy = 2.4E-12, # of iterations =  42

     total cpu time spent up to now is     8681.1 secs

     total energy              =   -3432.46995086 Ry
     estimated scf accuracy    <       0.00000017 Ry
     electrostatic embedding   =      -0.08334996 Ry
     cavitation energy         =       0.02174520 Ry
     PV energy                 =      -0.08423679 Ry
     correction to one-el term =     187.60835039 Ry

     iteration # 26     ecut=    50.00 Ry     beta= 0.70
     Davidson diagonalization with overlap
     ethr =  4.56E-11,  avg # of iterations =  2.0

     negative rho (up, down):  1.430E-04 0.000E+00

     add environment contribution to local potential
     Polarization accuracy = 2.7E-12, # of iterations =  42

     total cpu time spent up to now is     8965.8 secs

     total energy              =   -3432.46995129 Ry
     estimated scf accuracy    <       0.00000017 Ry
     electrostatic embedding   =      -0.08332035 Ry
     cavitation energy         =       0.02174506 Ry
     PV energy                 =      -0.08423683 Ry
     correction to one-el term =     187.61311979 Ry

     iteration # 27     ecut=    50.00 Ry     beta= 0.70
     Davidson diagonalization with overlap
     ethr =  4.56E-11,  avg # of iterations =  2.0

     negative rho (up, down):  1.361E-04 0.000E+00

     add environment contribution to local potential
     Polarization accuracy = 4.1E-12, # of iterations =  42

     total cpu time spent up to now is     9290.4 secs

     total energy              =   -3432.46995289 Ry
     estimated scf accuracy    <       0.00000017 Ry
     electrostatic embedding   =      -0.08335895 Ry
     cavitation energy         =       0.02174528 Ry
     PV energy                 =      -0.08423708 Ry
     correction to one-el term =     187.60714638 Ry

     iteration # 28     ecut=    50.00 Ry     beta= 0.70
     Davidson diagonalization with overlap
     ethr =  4.56E-11,  avg # of iterations =  2.0

     negative rho (up, down):  1.367E-04 0.000E+00

     add environment contribution to local potential
     Polarization accuracy = 5.4E-12, # of iterations =  42

     total cpu time spent up to now is     9625.3 secs

     total energy              =   -3432.46995657 Ry
     estimated scf accuracy    <       0.00000014 Ry
     electrostatic embedding   =      -0.08332441 Ry
     cavitation energy         =       0.02174550 Ry
     PV energy                 =      -0.08423611 Ry
     correction to one-el term =     187.61146857 Ry

     iteration # 29     ecut=    50.00 Ry     beta= 0.70
     Davidson diagonalization with overlap
     ethr =  3.79E-11,  avg # of iterations =  2.0

     negative rho (up, down):  1.416E-04 0.000E+00

     add environment contribution to local potential
     Polarization accuracy = 5.7E-12, # of iterations =  42

     total cpu time spent up to now is     9930.0 secs

     total energy              =   -3432.46996759 Ry
     estimated scf accuracy    <       0.00000014 Ry
     electrostatic embedding   =      -0.08335334 Ry
     cavitation energy         =       0.02174559 Ry
     PV energy                 =      -0.08423609 Ry
     correction to one-el term =     187.60793774 Ry

     iteration # 30     ecut=    50.00 Ry     beta= 0.70
     Davidson diagonalization with overlap
     ethr =  3.79E-11,  avg # of iterations =  2.0

     negative rho (up, down):  1.508E-04 0.000E+00

     add environment contribution to local potential
     Polarization accuracy = 5.8E-12, # of iterations =  42

     total cpu time spent up to now is    10228.6 secs

     total energy              =   -3432.46997575 Ry
     estimated scf accuracy    <       0.00000010 Ry
     electrostatic embedding   =      -0.08337643 Ry
     cavitation energy         =       0.02174556 Ry
     PV energy                 =      -0.08423569 Ry
     correction to one-el term =     187.60524636 Ry

     iteration # 31     ecut=    50.00 Ry     beta= 0.70
     Davidson diagonalization with overlap
     ethr =  2.79E-11,  avg # of iterations =  2.0

     negative rho (up, down):  1.494E-04 0.000E+00

     add environment contribution to local potential
     Polarization accuracy = 5.8E-12, # of iterations =  42

     total cpu time spent up to now is    10520.7 secs

     total energy              =   -3432.46998042 Ry
     estimated scf accuracy    <       0.00000011 Ry
     electrostatic embedding   =      -0.08336239 Ry
     cavitation energy         =       0.02174532 Ry
     PV energy                 =      -0.08423597 Ry
     correction to one-el term =     187.60776511 Ry

     iteration # 32     ecut=    50.00 Ry     beta= 0.70
     Davidson diagonalization with overlap
     ethr =  2.79E-11,  avg # of iterations =  2.0

     negative rho (up, down):  1.469E-04 0.000E+00

     add environment contribution to local potential
     Polarization accuracy = 5.8E-12, # of iterations =  42

     total cpu time spent up to now is    10774.7 secs

     total energy              =   -3432.46998207 Ry
     estimated scf accuracy    <       0.00000010 Ry
     electrostatic embedding   =      -0.08335228 Ry
     cavitation energy         =       0.02174517 Ry
     PV energy                 =      -0.08423650 Ry
     correction to one-el term =     187.60873272 Ry

     iteration # 33     ecut=    50.00 Ry     beta= 0.70
     Davidson diagonalization with overlap
     ethr =  2.79E-11,  avg # of iterations =  1.0

     negative rho (up, down):  1.444E-04 0.000E+00

     add environment contribution to local potential
     Polarization accuracy = 5.8E-12, # of iterations =  42

     total cpu time spent up to now is    11074.0 secs

     total energy              =   -3432.46998255 Ry
     estimated scf accuracy    <       0.00000009 Ry
     electrostatic embedding   =      -0.08335479 Ry
     cavitation energy         =       0.02174522 Ry
     PV energy                 =      -0.08423652 Ry
     correction to one-el term =     187.60819854 Ry

     iteration # 34     ecut=    50.00 Ry     beta= 0.70
     Davidson diagonalization with overlap
     ethr =  2.59E-11,  avg # of iterations =  1.0

     negative rho (up, down):  1.434E-04 0.000E+00

     add environment contribution to local potential
     Polarization accuracy = 5.8E-12, # of iterations =  42

     total cpu time spent up to now is    11398.6 secs

     total energy              =   -3432.46998281 Ry
     estimated scf accuracy    <       0.00000009 Ry
     electrostatic embedding   =      -0.08335386 Ry
     cavitation energy         =       0.02174524 Ry
     PV energy                 =      -0.08423658 Ry
     correction to one-el term =     187.60808917 Ry

     iteration # 35     ecut=    50.00 Ry     beta= 0.70
     Davidson diagonalization with overlap
     ethr =  2.57E-11,  avg # of iterations =  1.0

     negative rho (up, down):  1.434E-04 0.000E+00

     add environment contribution to local potential
     Polarization accuracy = 5.8E-12, # of iterations =  42

     total cpu time spent up to now is    11683.3 secs

     total energy              =   -3432.46998283 Ry
     estimated scf accuracy    <       0.00000009 Ry
     electrostatic embedding   =      -0.08335299 Ry
     cavitation energy         =       0.02174528 Ry
     PV energy                 =      -0.08423652 Ry
     correction to one-el term =     187.60813869 Ry

     iteration # 36     ecut=    50.00 Ry     beta= 0.70
     Davidson diagonalization with overlap
     ethr =  2.57E-11,  avg # of iterations =  1.0

     negative rho (up, down):  1.436E-04 0.000E+00

     add environment contribution to local potential
     Polarization accuracy = 5.8E-12, # of iterations =  42

     total cpu time spent up to now is    11937.7 secs

     total energy              =   -3432.46998282 Ry
     estimated scf accuracy    <       0.00000009 Ry
     electrostatic embedding   =      -0.08335351 Ry
     cavitation energy         =       0.02174528 Ry
     PV energy                 =      -0.08423651 Ry
     correction to one-el term =     187.60808136 Ry

     iteration # 37     ecut=    50.00 Ry     beta= 0.70
     Davidson diagonalization with overlap
     ethr =  2.57E-11,  avg # of iterations =  1.0

     negative rho (up, down):  1.442E-04 0.000E+00

     add environment contribution to local potential
     Polarization accuracy = 5.8E-12, # of iterations =  42

     total cpu time spent up to now is    12245.8 secs

     total energy              =   -3432.46998281 Ry
     estimated scf accuracy    <       0.00000009 Ry
     electrostatic embedding   =      -0.08335379 Ry
     cavitation energy         =       0.02174529 Ry
     PV energy                 =      -0.08423651 Ry
     correction to one-el term =     187.60806036 Ry

     iteration # 38     ecut=    50.00 Ry     beta= 0.70
     Davidson diagonalization with overlap
     ethr =  2.57E-11,  avg # of iterations =  1.0

     negative rho (up, down):  1.441E-04 0.000E+00

     add environment contribution to local potential
     Polarization accuracy = 5.8E-12, # of iterations =  42

     total cpu time spent up to now is    12564.2 secs

     total energy              =   -3432.46998269 Ry
     estimated scf accuracy    <       0.00000009 Ry
     electrostatic embedding   =      -0.08335333 Ry
     cavitation energy         =       0.02174529 Ry
     PV energy                 =      -0.08423653 Ry
     correction to one-el term =     187.60815873 Ry

     iteration # 39     ecut=    50.00 Ry     beta= 0.70
     Davidson diagonalization with overlap
     ethr =  2.57E-11,  avg # of iterations =  1.0

     negative rho (up, down):  1.439E-04 0.000E+00

     add environment contribution to local potential
     Polarization accuracy = 5.8E-12, # of iterations =  42

     total cpu time spent up to now is    12911.4 secs

     total energy              =   -3432.46998269 Ry
     estimated scf accuracy    <       0.00000009 Ry
     electrostatic embedding   =      -0.08335333 Ry
     cavitation energy         =       0.02174529 Ry
     PV energy                 =      -0.08423653 Ry
     correction to one-el term =     187.60815608 Ry

     iteration # 40     ecut=    50.00 Ry     beta= 0.70
     Davidson diagonalization with overlap
     ethr =  2.57E-11,  avg # of iterations =  1.0

     negative rho (up, down):  1.438E-04 0.000E+00

     add environment contribution to local potential
     Polarization accuracy = 5.8E-12, # of iterations =  42

     total cpu time spent up to now is    13202.8 secs

     total energy              =   -3432.46998269 Ry
     estimated scf accuracy    <       0.00000009 Ry
     electrostatic embedding   =      -0.08335355 Ry
     cavitation energy         =       0.02174529 Ry
     PV energy                 =      -0.08423653 Ry
     correction to one-el term =     187.60810919 Ry

     iteration # 41     ecut=    50.00 Ry     beta= 0.70
     Davidson diagonalization with overlap
     ethr =  2.56E-11,  avg # of iterations =  1.0

     negative rho (up, down):  1.438E-04 0.000E+00

     add environment contribution to local potential
     Polarization accuracy = 5.8E-12, # of iterations =  42

     total cpu time spent up to now is    13481.6 secs

     total energy              =   -3432.46998270 Ry
     estimated scf accuracy    <       0.00000009 Ry
     electrostatic embedding   =      -0.08335366 Ry
     cavitation energy         =       0.02174529 Ry
     PV energy                 =      -0.08423652 Ry
     correction to one-el term =     187.60809209 Ry

     iteration # 42     ecut=    50.00 Ry     beta= 0.70
     Davidson diagonalization with overlap
     ethr =  2.56E-11,  avg # of iterations =  1.0

     negative rho (up, down):  1.438E-04 0.000E+00

     add environment contribution to local potential
     Polarization accuracy = 5.8E-12, # of iterations =  42

     total cpu time spent up to now is    13829.6 secs

     total energy              =   -3432.46998269 Ry
     estimated scf accuracy    <       0.00000009 Ry
     electrostatic embedding   =      -0.08335361 Ry
     cavitation energy         =       0.02174529 Ry
     PV energy                 =      -0.08423652 Ry
     correction to one-el term =     187.60809642 Ry

     iteration # 43     ecut=    50.00 Ry     beta= 0.70
     Davidson diagonalization with overlap
     ethr =  2.56E-11,  avg # of iterations =  1.0

     negative rho (up, down):  1.438E-04 0.000E+00

     add environment contribution to local potential
     Polarization accuracy = 5.8E-12, # of iterations =  42

     total cpu time spent up to now is    14170.1 secs

     total energy              =   -3432.46998269 Ry
     estimated scf accuracy    <       0.00000009 Ry
     electrostatic embedding   =      -0.08335358 Ry
     cavitation energy         =       0.02174529 Ry
     PV energy                 =      -0.08423652 Ry
     correction to one-el term =     187.60809721 Ry

     iteration # 44     ecut=    50.00 Ry     beta= 0.70
     Davidson diagonalization with overlap
     ethr =  2.56E-11,  avg # of iterations =  1.0

     negative rho (up, down):  1.438E-04 0.000E+00

     add environment contribution to local potential
     Polarization accuracy = 5.8E-12, # of iterations =  42

     total cpu time spent up to now is    14422.8 secs

     total energy              =   -3432.46998269 Ry
     estimated scf accuracy    <       0.00000009 Ry
     electrostatic embedding   =      -0.08335360 Ry
     cavitation energy         =       0.02174529 Ry
     PV energy                 =      -0.08423652 Ry
     correction to one-el term =     187.60809522 Ry

     iteration # 45     ecut=    50.00 Ry     beta= 0.70
     Davidson diagonalization with overlap
     ethr =  2.56E-11,  avg # of iterations =  1.0

     negative rho (up, down):  1.438E-04 0.000E+00

     add environment contribution to local potential
     Polarization accuracy = 5.8E-12, # of iterations =  42

     total cpu time spent up to now is    14746.7 secs

     total energy              =   -3432.46998269 Ry
     estimated scf accuracy    <       0.00000009 Ry
     electrostatic embedding   =      -0.08335360 Ry
     cavitation energy         =       0.02174529 Ry
     PV energy                 =      -0.08423652 Ry
     correction to one-el term =     187.60809513 Ry

     iteration # 46     ecut=    50.00 Ry     beta= 0.70
     Davidson diagonalization with overlap
     ethr =  2.56E-11,  avg # of iterations =  1.0

     negative rho (up, down):  1.438E-04 0.000E+00

     add environment contribution to local potential
     Polarization accuracy = 9.5E-12, # of iterations =  42

     total cpu time spent up to now is    14973.0 secs

     total energy              =   -3432.46998269 Ry
     estimated scf accuracy    <       0.00000009 Ry
     electrostatic embedding   =      -0.08335360 Ry
     cavitation energy         =       0.02174529 Ry
     PV energy                 =      -0.08423652 Ry
     correction to one-el term =     187.60809467 Ry

     iteration # 47     ecut=    50.00 Ry     beta= 0.70
     Davidson diagonalization with overlap
     ethr =  2.56E-11,  avg # of iterations =  1.0

     negative rho (up, down):  1.438E-04 0.000E+00

     add environment contribution to local potential
     Polarization accuracy = 5.8E-12, # of iterations =  42

     total cpu time spent up to now is    15277.9 secs

     total energy              =   -3432.46998269 Ry
     estimated scf accuracy    <       0.00000009 Ry
     electrostatic embedding   =      -0.08335360 Ry
     cavitation energy         =       0.02174529 Ry
     PV energy                 =      -0.08423652 Ry
     correction to one-el term =     187.60809447 Ry

     iteration # 48     ecut=    50.00 Ry     beta= 0.70
     Davidson diagonalization with overlap
     ethr =  2.56E-11,  avg # of iterations =  1.0

     negative rho (up, down):  1.438E-04 0.000E+00

     add environment contribution to local potential
     Polarization accuracy = 5.8E-12, # of iterations =  42

     total cpu time spent up to now is    15546.0 secs

     total energy              =   -3432.46998269 Ry
     estimated scf accuracy    <       0.00000009 Ry
     electrostatic embedding   =      -0.08335360 Ry
     cavitation energy         =       0.02174529 Ry
     PV energy                 =      -0.08423652 Ry
     correction to one-el term =     187.60809474 Ry

     iteration # 49     ecut=    50.00 Ry     beta= 0.70
     Davidson diagonalization with overlap
     ethr =  2.56E-11,  avg # of iterations =  1.0

     negative rho (up, down):  1.438E-04 0.000E+00

     add environment contribution to local potential
     Polarization accuracy = 5.8E-12, # of iterations =  42

     total cpu time spent up to now is    15882.6 secs

     total energy              =   -3432.46998270 Ry
     estimated scf accuracy    <       0.00000009 Ry
     electrostatic embedding   =      -0.08335359 Ry
     cavitation energy         =       0.02174529 Ry
     PV energy                 =      -0.08423652 Ry
     correction to one-el term =     187.60809513 Ry

     iteration # 50     ecut=    50.00 Ry     beta= 0.70
     Davidson diagonalization with overlap
     ethr =  2.56E-11,  avg # of iterations =  1.0

     negative rho (up, down):  1.438E-04 0.000E+00

     add environment contribution to local potential
     Polarization accuracy = 5.8E-12, # of iterations =  42

     total cpu time spent up to now is    16204.8 secs

     total energy              =   -3432.46998270 Ry
     estimated scf accuracy    <       0.00000009 Ry
     electrostatic embedding   =      -0.08335359 Ry
     cavitation energy         =       0.02174529 Ry
     PV energy                 =      -0.08423652 Ry
     correction to one-el term =     187.60809515 Ry

     iteration # 51     ecut=    50.00 Ry     beta= 0.70
     Davidson diagonalization with overlap
     ethr =  2.56E-11,  avg # of iterations =  1.0

     negative rho (up, down):  1.438E-04 0.000E+00

     add environment contribution to local potential
     Polarization accuracy = 5.8E-12, # of iterations =  42

     total cpu time spent up to now is    16520.9 secs

     total energy              =   -3432.46998270 Ry
     estimated scf accuracy    <       0.00000009 Ry
     electrostatic embedding   =      -0.08335359 Ry
     cavitation energy         =       0.02174529 Ry
     PV energy                 =      -0.08423652 Ry
     correction to one-el term =     187.60809517 Ry

     iteration # 52     ecut=    50.00 Ry     beta= 0.70
     Davidson diagonalization with overlap
     ethr =  2.56E-11,  avg # of iterations =  1.0

     negative rho (up, down):  1.438E-04 0.000E+00

     add environment contribution to local potential
     Polarization accuracy = 5.8E-12, # of iterations =  42

     total cpu time spent up to now is    16859.8 secs

     total energy              =   -3432.46998270 Ry
     estimated scf accuracy    <       0.00000009 Ry
     electrostatic embedding   =      -0.08335359 Ry
     cavitation energy         =       0.02174529 Ry
     PV energy                 =      -0.08423652 Ry
     correction to one-el term =     187.60809543 Ry

     iteration # 53     ecut=    50.00 Ry     beta= 0.70
     Davidson diagonalization with overlap
     ethr =  2.56E-11,  avg # of iterations =  1.0

     negative rho (up, down):  1.438E-04 0.000E+00

     add environment contribution to local potential
     Polarization accuracy = 5.4E-12, # of iterations =  43

     total cpu time spent up to now is    17214.5 secs

     total energy              =   -3432.46998270 Ry
     estimated scf accuracy    <       0.00000009 Ry
     electrostatic embedding   =      -0.08335359 Ry
     cavitation energy         =       0.02174529 Ry
     PV energy                 =      -0.08423652 Ry
     correction to one-el term =     187.60809546 Ry

     iteration # 54     ecut=    50.00 Ry     beta= 0.70
     Davidson diagonalization with overlap
     ethr =  2.56E-11,  avg # of iterations =  1.0

     negative rho (up, down):  1.438E-04 0.000E+00

     add environment contribution to local potential
     Polarization accuracy = 5.8E-12, # of iterations =  42

     total cpu time spent up to now is    17492.9 secs

     total energy              =   -3432.46998270 Ry
     estimated scf accuracy    <       0.00000009 Ry
     electrostatic embedding   =      -0.08335359 Ry
     cavitation energy         =       0.02174529 Ry
     PV energy                 =      -0.08423652 Ry
     correction to one-el term =     187.60809567 Ry

     iteration # 55     ecut=    50.00 Ry     beta= 0.70
     Davidson diagonalization with overlap
     ethr =  2.56E-11,  avg # of iterations =  1.0

     negative rho (up, down):  1.438E-04 0.000E+00

     add environment contribution to local potential
     Polarization accuracy = 5.8E-12, # of iterations =  42

     total cpu time spent up to now is    17817.0 secs

     total energy              =   -3432.46998271 Ry
     estimated scf accuracy    <       0.00000009 Ry
     electrostatic embedding   =      -0.08335359 Ry
     cavitation energy         =       0.02174529 Ry
     PV energy                 =      -0.08423652 Ry
     correction to one-el term =     187.60809534 Ry

     iteration # 56     ecut=    50.00 Ry     beta= 0.70
     Davidson diagonalization with overlap
     ethr =  2.56E-11,  avg # of iterations =  1.0

     negative rho (up, down):  1.438E-04 0.000E+00

     add environment contribution to local potential
     Polarization accuracy = 5.8E-12, # of iterations =  42

     total cpu time spent up to now is    18025.7 secs

     total energy              =   -3432.46998271 Ry
     estimated scf accuracy    <       0.00000009 Ry
     electrostatic embedding   =      -0.08335359 Ry
     cavitation energy         =       0.02174529 Ry
     PV energy                 =      -0.08423652 Ry
     correction to one-el term =     187.60809532 Ry

     iteration # 57     ecut=    50.00 Ry     beta= 0.70
     Davidson diagonalization with overlap
     ethr =  2.56E-11,  avg # of iterations =  1.0

     negative rho (up, down):  1.438E-04 0.000E+00

     add environment contribution to local potential
     Polarization accuracy = 5.8E-12, # of iterations =  42

     total cpu time spent up to now is    18384.6 secs

     total energy              =   -3432.46998271 Ry
     estimated scf accuracy    <       0.00000009 Ry
     electrostatic embedding   =      -0.08335359 Ry
     cavitation energy         =       0.02174529 Ry
     PV energy                 =      -0.08423652 Ry
     correction to one-el term =     187.60809529 Ry

     iteration # 58     ecut=    50.00 Ry     beta= 0.70
     Davidson diagonalization with overlap
     ethr =  2.56E-11,  avg # of iterations =  1.0

     negative rho (up, down):  1.438E-04 0.000E+00

     add environment contribution to local potential
     Polarization accuracy = 5.8E-12, # of iterations =  42

     total cpu time spent up to now is    18719.2 secs

     total energy              =   -3432.46998271 Ry
     estimated scf accuracy    <       0.00000009 Ry
     electrostatic embedding   =      -0.08335359 Ry
     cavitation energy         =       0.02174529 Ry
     PV energy                 =      -0.08423652 Ry
     correction to one-el term =     187.60809532 Ry

     iteration # 59     ecut=    50.00 Ry     beta= 0.70
     Davidson diagonalization with overlap
     ethr =  2.56E-11,  avg # of iterations =  1.0

     negative rho (up, down):  1.438E-04 0.000E+00

     add environment contribution to local potential
     Polarization accuracy = 6.0E-12, # of iterations =  42

     total cpu time spent up to now is    19067.2 secs

     total energy              =   -3432.46998271 Ry
     estimated scf accuracy    <       0.00000009 Ry
     electrostatic embedding   =      -0.08335359 Ry
     cavitation energy         =       0.02174529 Ry
     PV energy                 =      -0.08423652 Ry
     correction to one-el term =     187.60809534 Ry

     iteration # 60     ecut=    50.00 Ry     beta= 0.70
     Davidson diagonalization with overlap
     ethr =  2.56E-11,  avg # of iterations =  1.0

     negative rho (up, down):  1.438E-04 0.000E+00

     add environment contribution to local potential
     Polarization accuracy = 5.8E-12, # of iterations =  42

     total cpu time spent up to now is    19375.6 secs

     total energy              =   -3432.46998271 Ry
     estimated scf accuracy    <       0.00000009 Ry
     electrostatic embedding   =      -0.08335359 Ry
     cavitation energy         =       0.02174529 Ry
     PV energy                 =      -0.08423652 Ry
     correction to one-el term =     187.60809532 Ry

     iteration # 61     ecut=    50.00 Ry     beta= 0.70
     Davidson diagonalization with overlap
     ethr =  2.56E-11,  avg # of iterations =  1.0

     negative rho (up, down):  1.438E-04 0.000E+00

     add environment contribution to local potential
     Polarization accuracy = 5.8E-12, # of iterations =  42

     total cpu time spent up to now is    19671.8 secs

     total energy              =   -3432.46998271 Ry
     estimated scf accuracy    <       0.00000009 Ry
     electrostatic embedding   =      -0.08335359 Ry
     cavitation energy         =       0.02174529 Ry
     PV energy                 =      -0.08423652 Ry
     correction to one-el term =     187.60809532 Ry

     iteration # 62     ecut=    50.00 Ry     beta= 0.70
     Davidson diagonalization with overlap
     ethr =  2.56E-11,  avg # of iterations =  1.0

     negative rho (up, down):  1.438E-04 0.000E+00

     add environment contribution to local potential
     Polarization accuracy = 5.8E-12, # of iterations =  42

     total cpu time spent up to now is    20008.9 secs

     total energy              =   -3432.46998271 Ry
     estimated scf accuracy    <       0.00000009 Ry
     electrostatic embedding   =      -0.08335359 Ry
     cavitation energy         =       0.02174529 Ry
     PV energy                 =      -0.08423652 Ry
     correction to one-el term =     187.60809532 Ry

     iteration # 63     ecut=    50.00 Ry     beta= 0.70
     Davidson diagonalization with overlap
     ethr =  2.56E-11,  avg # of iterations =  1.0

     negative rho (up, down):  1.438E-04 0.000E+00

     add environment contribution to local potential
     Polarization accuracy = 5.8E-12, # of iterations =  42

     total cpu time spent up to now is    20295.8 secs

     total energy              =   -3432.46998271 Ry
     estimated scf accuracy    <       0.00000009 Ry
     electrostatic embedding   =      -0.08335359 Ry
     cavitation energy         =       0.02174529 Ry
     PV energy                 =      -0.08423652 Ry
     correction to one-el term =     187.60809532 Ry

     iteration # 64     ecut=    50.00 Ry     beta= 0.70
     Davidson diagonalization with overlap
     ethr =  2.56E-11,  avg # of iterations =  1.0

     negative rho (up, down):  1.438E-04 0.000E+00

     add environment contribution to local potential
     Polarization accuracy = 5.8E-12, # of iterations =  42

     total cpu time spent up to now is    20592.7 secs

     total energy              =   -3432.46998271 Ry
     estimated scf accuracy    <       0.00000009 Ry
     electrostatic embedding   =      -0.08335359 Ry
     cavitation energy         =       0.02174529 Ry
     PV energy                 =      -0.08423652 Ry
     correction to one-el term =     187.60809532 Ry

     iteration # 65     ecut=    50.00 Ry     beta= 0.70
     Davidson diagonalization with overlap
     ethr =  2.56E-11,  avg # of iterations =  1.0

     negative rho (up, down):  1.438E-04 0.000E+00

     add environment contribution to local potential
     Polarization accuracy = 5.8E-12, # of iterations =  42

     total cpu time spent up to now is    20917.2 secs

     total energy              =   -3432.46998271 Ry
     estimated scf accuracy    <       0.00000009 Ry
     electrostatic embedding   =      -0.08335359 Ry
     cavitation energy         =       0.02174529 Ry
     PV energy                 =      -0.08423652 Ry
     correction to one-el term =     187.60809532 Ry

     iteration # 66     ecut=    50.00 Ry     beta= 0.70
     Davidson diagonalization with overlap
     ethr =  2.56E-11,  avg # of iterations =  1.0

     negative rho (up, down):  1.438E-04 0.000E+00

     add environment contribution to local potential
     Polarization accuracy = 5.8E-12, # of iterations =  42

     total cpu time spent up to now is    21237.9 secs

     total energy              =   -3432.46998271 Ry
     estimated scf accuracy    <       0.00000009 Ry
     electrostatic embedding   =      -0.08335359 Ry
     cavitation energy         =       0.02174529 Ry
     PV energy                 =      -0.08423652 Ry
     correction to one-el term =     187.60809534 Ry

     iteration # 67     ecut=    50.00 Ry     beta= 0.70
     Davidson diagonalization with overlap
     ethr =  2.56E-11,  avg # of iterations =  1.0

     negative rho (up, down):  1.438E-04 0.000E+00

     add environment contribution to local potential
     Polarization accuracy = 5.8E-12, # of iterations =  42

     total cpu time spent up to now is    21546.4 secs

     total energy              =   -3432.46998271 Ry
     estimated scf accuracy    <       0.00000009 Ry
     electrostatic embedding   =      -0.08335359 Ry
     cavitation energy         =       0.02174529 Ry
     PV energy                 =      -0.08423652 Ry
     correction to one-el term =     187.60809533 Ry

     iteration # 68     ecut=    50.00 Ry     beta= 0.70
     Davidson diagonalization with overlap
     ethr =  2.56E-11,  avg # of iterations =  1.0

     negative rho (up, down):  1.438E-04 0.000E+00

     add environment contribution to local potential
     Polarization accuracy = 5.8E-12, # of iterations =  42

     total cpu time spent up to now is    21884.7 secs

     total energy              =   -3432.46998271 Ry
     estimated scf accuracy    <       0.00000009 Ry
     electrostatic embedding   =      -0.08335359 Ry
     cavitation energy         =       0.02174529 Ry
     PV energy                 =      -0.08423652 Ry
     correction to one-el term =     187.60809533 Ry

     iteration # 69     ecut=    50.00 Ry     beta= 0.70
     Davidson diagonalization with overlap
     ethr =  2.56E-11,  avg # of iterations =  1.0

     negative rho (up, down):  1.438E-04 0.000E+00

     add environment contribution to local potential
     Polarization accuracy = 6.0E-12, # of iterations =  42

     total cpu time spent up to now is    22140.9 secs

     total energy              =   -3432.46998271 Ry
     estimated scf accuracy    <       0.00000009 Ry
     electrostatic embedding   =      -0.08335359 Ry
     cavitation energy         =       0.02174529 Ry
     PV energy                 =      -0.08423652 Ry
     correction to one-el term =     187.60809531 Ry

     iteration # 70     ecut=    50.00 Ry     beta= 0.70
     Davidson diagonalization with overlap
     ethr =  2.56E-11,  avg # of iterations =  1.0

     negative rho (up, down):  1.438E-04 0.000E+00

     add environment contribution to local potential
     Polarization accuracy = 5.8E-12, # of iterations =  42

     total cpu time spent up to now is    22470.3 secs

     total energy              =   -3432.46998271 Ry
     estimated scf accuracy    <       0.00000009 Ry
     electrostatic embedding   =      -0.08335359 Ry
     cavitation energy         =       0.02174529 Ry
     PV energy                 =      -0.08423652 Ry
     correction to one-el term =     187.60809532 Ry

     iteration # 71     ecut=    50.00 Ry     beta= 0.70
     Davidson diagonalization with overlap
     ethr =  2.56E-11,  avg # of iterations =  1.0

     negative rho (up, down):  1.438E-04 0.000E+00

     add environment contribution to local potential
     Polarization accuracy = 5.8E-12, # of iterations =  42

     total cpu time spent up to now is    22746.0 secs

     total energy              =   -3432.46998271 Ry
     estimated scf accuracy    <       0.00000009 Ry
     electrostatic embedding   =      -0.08335359 Ry
     cavitation energy         =       0.02174529 Ry
     PV energy                 =      -0.08423652 Ry
     correction to one-el term =     187.60809525 Ry

     iteration # 72     ecut=    50.00 Ry     beta= 0.70
     Davidson diagonalization with overlap
     ethr =  2.56E-11,  avg # of iterations =  1.0

     negative rho (up, down):  1.438E-04 0.000E+00

     add environment contribution to local potential
     Polarization accuracy = 5.8E-12, # of iterations =  42

     total cpu time spent up to now is    23000.5 secs

     total energy              =   -3432.46998271 Ry
     estimated scf accuracy    <       0.00000009 Ry
     electrostatic embedding   =      -0.08335359 Ry
     cavitation energy         =       0.02174529 Ry
     PV energy                 =      -0.08423652 Ry
     correction to one-el term =     187.60809509 Ry

     iteration # 73     ecut=    50.00 Ry     beta= 0.70
     Davidson diagonalization with overlap
     ethr =  2.56E-11,  avg # of iterations =  1.0

     negative rho (up, down):  1.438E-04 0.000E+00

     add environment contribution to local potential
     Polarization accuracy = 5.3E-12, # of iterations =  43

     total cpu time spent up to now is    23303.0 secs

     total energy              =   -3432.46998271 Ry
     estimated scf accuracy    <       0.00000009 Ry
     electrostatic embedding   =      -0.08335359 Ry
     cavitation energy         =       0.02174529 Ry
     PV energy                 =      -0.08423652 Ry
     correction to one-el term =     187.60809500 Ry

     iteration # 74     ecut=    50.00 Ry     beta= 0.70
     Davidson diagonalization with overlap
     ethr =  2.56E-11,  avg # of iterations =  1.0

     negative rho (up, down):  1.438E-04 0.000E+00

     add environment contribution to local potential
     Polarization accuracy = 5.8E-12, # of iterations =  42

     total cpu time spent up to now is    23605.6 secs

     total energy              =   -3432.46998271 Ry
     estimated scf accuracy    <       0.00000009 Ry
     electrostatic embedding   =      -0.08335359 Ry
     cavitation energy         =       0.02174529 Ry
     PV energy                 =      -0.08423652 Ry
     correction to one-el term =     187.60809504 Ry

     iteration # 75     ecut=    50.00 Ry     beta= 0.70
     Davidson diagonalization with overlap
     ethr =  2.56E-11,  avg # of iterations =  1.0

     negative rho (up, down):  1.438E-04 0.000E+00

     add environment contribution to local potential
     Polarization accuracy = 5.8E-12, # of iterations =  42

     total cpu time spent up to now is    23927.6 secs

     total energy              =   -3432.46998271 Ry
     estimated scf accuracy    <       0.00000009 Ry
     electrostatic embedding   =      -0.08335359 Ry
     cavitation energy         =       0.02174529 Ry
     PV energy                 =      -0.08423652 Ry
     correction to one-el term =     187.60809519 Ry

     iteration # 76     ecut=    50.00 Ry     beta= 0.70
     Davidson diagonalization with overlap
     ethr =  2.56E-11,  avg # of iterations =  1.0

     negative rho (up, down):  1.438E-04 0.000E+00

     add environment contribution to local potential
     Polarization accuracy = 5.8E-12, # of iterations =  42

     total cpu time spent up to now is    24273.7 secs

     total energy              =   -3432.46998271 Ry
     estimated scf accuracy    <       0.00000009 Ry
     electrostatic embedding   =      -0.08335359 Ry
     cavitation energy         =       0.02174529 Ry
     PV energy                 =      -0.08423652 Ry
     correction to one-el term =     187.60809523 Ry

     iteration # 77     ecut=    50.00 Ry     beta= 0.70
     Davidson diagonalization with overlap
     ethr =  2.56E-11,  avg # of iterations =  1.0

     negative rho (up, down):  1.438E-04 0.000E+00

     add environment contribution to local potential
     Polarization accuracy = 5.8E-12, # of iterations =  42

     total cpu time spent up to now is    24575.9 secs

     total energy              =   -3432.46998271 Ry
     estimated scf accuracy    <       0.00000009 Ry
     electrostatic embedding   =      -0.08335359 Ry
     cavitation energy         =       0.02174529 Ry
     PV energy                 =      -0.08423652 Ry
     correction to one-el term =     187.60809517 Ry

     iteration # 78     ecut=    50.00 Ry     beta= 0.70
     Davidson diagonalization with overlap
     ethr =  2.56E-11,  avg # of iterations =  1.0

     negative rho (up, down):  1.438E-04 0.000E+00

     add environment contribution to local potential
     Polarization accuracy = 5.8E-12, # of iterations =  42

     total cpu time spent up to now is    24885.0 secs

     total energy              =   -3432.46998271 Ry
     estimated scf accuracy    <       0.00000009 Ry
     electrostatic embedding   =      -0.08335359 Ry
     cavitation energy         =       0.02174529 Ry
     PV energy                 =      -0.08423652 Ry
     correction to one-el term =     187.60809507 Ry

     iteration # 79     ecut=    50.00 Ry     beta= 0.70
     Davidson diagonalization with overlap
     ethr =  2.56E-11,  avg # of iterations =  1.0

     negative rho (up, down):  1.438E-04 0.000E+00

     add environment contribution to local potential
     Polarization accuracy = 5.8E-12, # of iterations =  42

     total cpu time spent up to now is    25181.8 secs

     total energy              =   -3432.46998271 Ry
     estimated scf accuracy    <       0.00000009 Ry
     electrostatic embedding   =      -0.08335359 Ry
     cavitation energy         =       0.02174529 Ry
     PV energy                 =      -0.08423652 Ry
     correction to one-el term =     187.60809507 Ry

     iteration # 80     ecut=    50.00 Ry     beta= 0.70
     Davidson diagonalization with overlap
     ethr =  2.56E-11,  avg # of iterations =  1.0

     negative rho (up, down):  1.438E-04 0.000E+00

     add environment contribution to local potential
     Polarization accuracy = 5.8E-12, # of iterations =  42

     total cpu time spent up to now is    25446.4 secs

     total energy              =   -3432.46998271 Ry
     estimated scf accuracy    <       0.00000009 Ry
     electrostatic embedding   =      -0.08335359 Ry
     cavitation energy         =       0.02174529 Ry
     PV energy                 =      -0.08423652 Ry
     correction to one-el term =     187.60809508 Ry

     iteration # 81     ecut=    50.00 Ry     beta= 0.70
     Davidson diagonalization with overlap
     ethr =  2.56E-11,  avg # of iterations =  1.0

     negative rho (up, down):  1.438E-04 0.000E+00

     add environment contribution to local potential
     Polarization accuracy = 5.8E-12, # of iterations =  42

     total cpu time spent up to now is    25761.1 secs

     total energy              =   -3432.46998271 Ry
     estimated scf accuracy    <       0.00000009 Ry
     electrostatic embedding   =      -0.08335359 Ry
     cavitation energy         =       0.02174529 Ry
     PV energy                 =      -0.08423652 Ry
     correction to one-el term =     187.60809507 Ry

     iteration # 82     ecut=    50.00 Ry     beta= 0.70
     Davidson diagonalization with overlap
     ethr =  2.56E-11,  avg # of iterations =  1.0

     negative rho (up, down):  1.438E-04 0.000E+00

     add environment contribution to local potential
     Polarization accuracy = 5.8E-12, # of iterations =  42

     total cpu time spent up to now is    26063.8 secs

     total energy              =   -3432.46998271 Ry
     estimated scf accuracy    <       0.00000009 Ry
     electrostatic embedding   =      -0.08335359 Ry
     cavitation energy         =       0.02174529 Ry
     PV energy                 =      -0.08423652 Ry
     correction to one-el term =     187.60809508 Ry

     iteration # 83     ecut=    50.00 Ry     beta= 0.70
     Davidson diagonalization with overlap
     ethr =  2.56E-11,  avg # of iterations =  1.0

     negative rho (up, down):  1.438E-04 0.000E+00

     add environment contribution to local potential
     Polarization accuracy = 5.8E-12, # of iterations =  42

     total cpu time spent up to now is    26438.3 secs

     total energy              =   -3432.46998271 Ry
     estimated scf accuracy    <       0.00000009 Ry
     electrostatic embedding   =      -0.08335359 Ry
     cavitation energy         =       0.02174529 Ry
     PV energy                 =      -0.08423652 Ry
     correction to one-el term =     187.60809517 Ry

     iteration # 84     ecut=    50.00 Ry     beta= 0.70
     Davidson diagonalization with overlap
     ethr =  2.56E-11,  avg # of iterations =  1.0

     negative rho (up, down):  1.438E-04 0.000E+00

     add environment contribution to local potential
     Polarization accuracy = 5.8E-12, # of iterations =  42

     total cpu time spent up to now is    26634.6 secs

     total energy              =   -3432.46998271 Ry
     estimated scf accuracy    <       0.00000009 Ry
     electrostatic embedding   =      -0.08335359 Ry
     cavitation energy         =       0.02174529 Ry
     PV energy                 =      -0.08423652 Ry
     correction to one-el term =     187.60809515 Ry

     iteration # 85     ecut=    50.00 Ry     beta= 0.70
     Davidson diagonalization with overlap
     ethr =  2.56E-11,  avg # of iterations =  1.0

     negative rho (up, down):  1.438E-04 0.000E+00

     add environment contribution to local potential
     Polarization accuracy = 5.8E-12, # of iterations =  42

     total cpu time spent up to now is    26985.7 secs

     total energy              =   -3432.46998271 Ry
     estimated scf accuracy    <       0.00000009 Ry
     electrostatic embedding   =      -0.08335359 Ry
     cavitation energy         =       0.02174529 Ry
     PV energy                 =      -0.08423652 Ry
     correction to one-el term =     187.60809512 Ry

     iteration # 86     ecut=    50.00 Ry     beta= 0.70
     Davidson diagonalization with overlap
     ethr =  2.56E-11,  avg # of iterations =  1.0

     negative rho (up, down):  1.438E-04 0.000E+00

     add environment contribution to local potential
     Polarization accuracy = 5.8E-12, # of iterations =  42

     total cpu time spent up to now is    27136.5 secs

     total energy              =   -3432.46998271 Ry
     estimated scf accuracy    <       0.00000009 Ry
     electrostatic embedding   =      -0.08335359 Ry
     cavitation energy         =       0.02174529 Ry
     PV energy                 =      -0.08423652 Ry
     correction to one-el term =     187.60809513 Ry

     iteration # 87     ecut=    50.00 Ry     beta= 0.70
     Davidson diagonalization with overlap
     ethr =  2.56E-11,  avg # of iterations =  1.0

     negative rho (up, down):  1.438E-04 0.000E+00

     add environment contribution to local potential
     Polarization accuracy = 5.8E-12, # of iterations =  42

     total cpu time spent up to now is    27335.2 secs

     total energy              =   -3432.46998271 Ry
     estimated scf accuracy    <       0.00000009 Ry
     electrostatic embedding   =      -0.08335359 Ry
     cavitation energy         =       0.02174529 Ry
     PV energy                 =      -0.08423652 Ry
     correction to one-el term =     187.60809523 Ry

     iteration # 88     ecut=    50.00 Ry     beta= 0.70
     Davidson diagonalization with overlap
     ethr =  2.56E-11,  avg # of iterations =  1.0

     negative rho (up, down):  1.438E-04 0.000E+00

     add environment contribution to local potential
     Polarization accuracy = 5.8E-12, # of iterations =  42

     total cpu time spent up to now is    27513.8 secs

     total energy              =   -3432.46998271 Ry
     estimated scf accuracy    <       0.00000009 Ry
     electrostatic embedding   =      -0.08335359 Ry
     cavitation energy         =       0.02174529 Ry
     PV energy                 =      -0.08423652 Ry
     correction to one-el term =     187.60809507 Ry

     iteration # 89     ecut=    50.00 Ry     beta= 0.70
     Davidson diagonalization with overlap
     ethr =  2.56E-11,  avg # of iterations =  1.0

     negative rho (up, down):  1.438E-04 0.000E+00

     add environment contribution to local potential
     Polarization accuracy = 5.8E-12, # of iterations =  42

     total cpu time spent up to now is    27680.2 secs

     total energy              =   -3432.46998271 Ry
     estimated scf accuracy    <       0.00000009 Ry
     electrostatic embedding   =      -0.08335359 Ry
     cavitation energy         =       0.02174529 Ry
     PV energy                 =      -0.08423652 Ry
     correction to one-el term =     187.60809516 Ry

     iteration # 90     ecut=    50.00 Ry     beta= 0.70
     Davidson diagonalization with overlap
     ethr =  2.56E-11,  avg # of iterations =  1.0

     negative rho (up, down):  1.438E-04 0.000E+00

     add environment contribution to local potential
     Polarization accuracy = 5.8E-12, # of iterations =  42

     total cpu time spent up to now is    27840.1 secs

     total energy              =   -3432.46998271 Ry
     estimated scf accuracy    <       0.00000009 Ry
     electrostatic embedding   =      -0.08335359 Ry
     cavitation energy         =       0.02174529 Ry
     PV energy                 =      -0.08423652 Ry
     correction to one-el term =     187.60809520 Ry

     iteration # 91     ecut=    50.00 Ry     beta= 0.70
     Davidson diagonalization with overlap
     ethr =  2.56E-11,  avg # of iterations =  1.0

     negative rho (up, down):  1.438E-04 0.000E+00

     add environment contribution to local potential
     Polarization accuracy = 5.7E-12, # of iterations =  42

     total cpu time spent up to now is    27990.3 secs

     total energy              =   -3432.46998271 Ry
     estimated scf accuracy    <       0.00000009 Ry
     electrostatic embedding   =      -0.08335359 Ry
     cavitation energy         =       0.02174529 Ry
     PV energy                 =      -0.08423652 Ry
     correction to one-el term =     187.60809510 Ry

     iteration # 92     ecut=    50.00 Ry     beta= 0.70
     Davidson diagonalization with overlap
     ethr =  2.56E-11,  avg # of iterations =  1.0

     negative rho (up, down):  1.438E-04 0.000E+00

     add environment contribution to local potential
     Polarization accuracy = 5.3E-12, # of iterations =  43

     total cpu time spent up to now is    28167.6 secs

     total energy              =   -3432.46998271 Ry
     estimated scf accuracy    <       0.00000009 Ry
     electrostatic embedding   =      -0.08335359 Ry
     cavitation energy         =       0.02174529 Ry
     PV energy                 =      -0.08423652 Ry
     correction to one-el term =     187.60809493 Ry

     iteration # 93     ecut=    50.00 Ry     beta= 0.70
     Davidson diagonalization with overlap
     ethr =  2.56E-11,  avg # of iterations =  1.0

     negative rho (up, down):  1.438E-04 0.000E+00

     add environment contribution to local potential
     Polarization accuracy = 6.0E-12, # of iterations =  42

     total cpu time spent up to now is    28344.7 secs

     total energy              =   -3432.46998271 Ry
     estimated scf accuracy    <       0.00000009 Ry
     electrostatic embedding   =      -0.08335359 Ry
     cavitation energy         =       0.02174529 Ry
     PV energy                 =      -0.08423652 Ry
     correction to one-el term =     187.60809510 Ry

     iteration # 94     ecut=    50.00 Ry     beta= 0.70
     Davidson diagonalization with overlap
     ethr =  2.56E-11,  avg # of iterations =  1.0

     negative rho (up, down):  1.438E-04 0.000E+00

     add environment contribution to local potential
     Polarization accuracy = 5.8E-12, # of iterations =  42

     total cpu time spent up to now is    28484.3 secs

     total energy              =   -3432.46998271 Ry
     estimated scf accuracy    <       0.00000009 Ry
     electrostatic embedding   =      -0.08335359 Ry
     cavitation energy         =       0.02174529 Ry
     PV energy                 =      -0.08423652 Ry
     correction to one-el term =     187.60809506 Ry

     iteration # 95     ecut=    50.00 Ry     beta= 0.70
     Davidson diagonalization with overlap
     ethr =  2.56E-11,  avg # of iterations =  1.0

     negative rho (up, down):  1.438E-04 0.000E+00

     add environment contribution to local potential
     Polarization accuracy = 5.8E-12, # of iterations =  42

     total cpu time spent up to now is    28655.3 secs

     total energy              =   -3432.46998271 Ry
     estimated scf accuracy    <       0.00000009 Ry
     electrostatic embedding   =      -0.08335359 Ry
     cavitation energy         =       0.02174529 Ry
     PV energy                 =      -0.08423652 Ry
     correction to one-el term =     187.60809506 Ry

     iteration # 96     ecut=    50.00 Ry     beta= 0.70
     Davidson diagonalization with overlap
     ethr =  2.56E-11,  avg # of iterations =  1.0

     negative rho (up, down):  1.438E-04 0.000E+00

     add environment contribution to local potential
     Polarization accuracy = 5.8E-12, # of iterations =  42

     total cpu time spent up to now is    28810.5 secs

     total energy              =   -3432.46998271 Ry
     estimated scf accuracy    <       0.00000009 Ry
     electrostatic embedding   =      -0.08335359 Ry
     cavitation energy         =       0.02174529 Ry
     PV energy                 =      -0.08423652 Ry
     correction to one-el term =     187.60809510 Ry

     iteration # 97     ecut=    50.00 Ry     beta= 0.70
     Davidson diagonalization with overlap
     ethr =  2.56E-11,  avg # of iterations =  1.0

     negative rho (up, down):  1.438E-04 0.000E+00

     add environment contribution to local potential
     Polarization accuracy = 5.3E-12, # of iterations =  43

     total cpu time spent up to now is    28961.9 secs

     total energy              =   -3432.46998271 Ry
     estimated scf accuracy    <       0.00000009 Ry
     electrostatic embedding   =      -0.08335359 Ry
     cavitation energy         =       0.02174529 Ry
     PV energy                 =      -0.08423652 Ry
     correction to one-el term =     187.60809510 Ry

     iteration # 98     ecut=    50.00 Ry     beta= 0.70
     Davidson diagonalization with overlap
     ethr =  2.56E-11,  avg # of iterations =  1.0

     negative rho (up, down):  1.438E-04 0.000E+00

     add environment contribution to local potential
     Polarization accuracy = 5.8E-12, # of iterations =  42

     total cpu time spent up to now is    29115.9 secs

     total energy              =   -3432.46998271 Ry
     estimated scf accuracy    <       0.00000009 Ry
     electrostatic embedding   =      -0.08335359 Ry
     cavitation energy         =       0.02174529 Ry
     PV energy                 =      -0.08423652 Ry
     correction to one-el term =     187.60809510 Ry

     iteration # 99     ecut=    50.00 Ry     beta= 0.70
     Davidson diagonalization with overlap
     ethr =  2.56E-11,  avg # of iterations =  1.0

     negative rho (up, down):  1.438E-04 0.000E+00

     add environment contribution to local potential
     Polarization accuracy = 5.8E-12, # of iterations =  42

     total cpu time spent up to now is    29293.4 secs

     total energy              =   -3432.46998271 Ry
     estimated scf accuracy    <       0.00000009 Ry
     electrostatic embedding   =      -0.08335359 Ry
     cavitation energy         =       0.02174529 Ry
     PV energy                 =      -0.08423652 Ry
     correction to one-el term =     187.60809510 Ry

     iteration #100     ecut=    50.00 Ry     beta= 0.70
     Davidson diagonalization with overlap
     ethr =  2.56E-11,  avg # of iterations =  1.0

     negative rho (up, down):  1.438E-04 0.000E+00

     the potential shift due to the Gaussian-smeared nuclei is    -1.3065 ev

     total cpu time spent up to now is    29457.3 secs

     End of self-consistent calculation

[...]
     estimated scf accuracy    <       0.00000187 Ry
     electrostatic embedding   =      -0.06449036 Ry
     cavitation energy         =       0.02152510 Ry
     PV energy                 =      -0.08203798 Ry
     correction to one-el term =     183.41405445 Ry

     iteration # 10     ecut=    50.00 Ry     beta= 0.70
     Davidson diagonalization with overlap
     ethr =  5.13E-10,  avg # of iterations =  3.0

     negative rho (up, down):  9.660E-05 0.000E+00

     add environment contribution to local potential
     Polarization accuracy = 8.8E-12, # of iterations =  42

     total cpu time spent up to now is   203085.6 secs

     total energy              =   -3432.77985323 Ry
     estimated scf accuracy    <       0.00000036 Ry
     electrostatic embedding   =      -0.06434787 Ry
     cavitation energy         =       0.02152736 Ry
     PV energy                 =      -0.08203497 Ry
     correction to one-el term =     183.43830636 Ry

     iteration # 11     ecut=    50.00 Ry     beta= 0.70
     Davidson diagonalization with overlap
     ethr =  9.79E-11,  avg # of iterations =  3.0

     negative rho (up, down):  1.177E-04 0.000E+00

     add environment contribution to local potential
     Polarization accuracy = 8.8E-12, # of iterations =  42

     total cpu time spent up to now is   203248.0 secs

     total energy              =   -3432.77985333 Ry
     estimated scf accuracy    <       0.00000016 Ry
     electrostatic embedding   =      -0.06427588 Ry
     cavitation energy         =       0.02152764 Ry
     PV energy                 =      -0.08203489 Ry
     correction to one-el term =     183.45567138 Ry

     iteration # 12     ecut=    50.00 Ry     beta= 0.70
     Davidson diagonalization with overlap
     ethr =  4.46E-11,  avg # of iterations =  2.0

     negative rho (up, down):  1.387E-04 0.000E+00

     add environment contribution to local potential
     Polarization accuracy = 8.9E-12, # of iterations =  42

     total cpu time spent up to now is   203397.0 secs

     total energy              =   -3432.77985337 Ry
     estimated scf accuracy    <       0.00000013 Ry
     electrostatic embedding   =      -0.06423480 Ry
     cavitation energy         =       0.02152736 Ry
     PV energy                 =      -0.08203538 Ry
     correction to one-el term =     183.46566378 Ry

     iteration # 13     ecut=    50.00 Ry     beta= 0.70
     Davidson diagonalization with overlap
     ethr =  3.45E-11,  avg # of iterations =  2.0

     negative rho (up, down):  1.578E-04 0.000E+00

     add environment contribution to local potential
     Polarization accuracy = 8.8E-12, # of iterations =  42

     total cpu time spent up to now is   203555.3 secs

     total energy              =   -3432.77985336 Ry
     estimated scf accuracy    <       0.00000010 Ry
     electrostatic embedding   =      -0.06419334 Ry
     cavitation energy         =       0.02152688 Ry
     PV energy                 =      -0.08203600 Ry
     correction to one-el term =     183.47430591 Ry

     iteration # 14     ecut=    50.00 Ry     beta= 0.70
     Davidson diagonalization with overlap
     ethr =  2.82E-11,  avg # of iterations =  2.0

     negative rho (up, down):  1.616E-04 0.000E+00

     add environment contribution to local potential
     Polarization accuracy = 8.1E-12, # of iterations =  43

     total cpu time spent up to now is   203713.2 secs

     total energy              =   -3432.77985332 Ry
     estimated scf accuracy    <       0.00000010 Ry
     electrostatic embedding   =      -0.06415688 Ry
     cavitation energy         =       0.02152656 Ry
     PV energy                 =      -0.08203638 Ry
     correction to one-el term =     183.48161161 Ry

     iteration # 15     ecut=    50.00 Ry     beta= 0.70
     Davidson diagonalization with overlap
     ethr =  2.77E-11,  avg # of iterations =  2.0

     negative rho (up, down):  1.611E-04 0.000E+00

     add environment contribution to local potential
     Polarization accuracy = 8.8E-12, # of iterations =  42

     total cpu time spent up to now is   203876.0 secs

     total energy              =   -3432.77985331 Ry
     estimated scf accuracy    <       0.00000010 Ry
     electrostatic embedding   =      -0.06414544 Ry
     cavitation energy         =       0.02152644 Ry
     PV energy                 =      -0.08203649 Ry
     correction to one-el term =     183.48328476 Ry

     iteration # 16     ecut=    50.00 Ry     beta= 0.70
     Davidson diagonalization with overlap
     ethr =  2.62E-11,  avg # of iterations =  1.0

     negative rho (up, down):  1.608E-04 0.000E+00

     add environment contribution to local potential
     Polarization accuracy = 8.8E-12, # of iterations =  42

     total cpu time spent up to now is   204039.9 secs

     total energy              =   -3432.77985330 Ry
     estimated scf accuracy    <       0.00000009 Ry
     electrostatic embedding   =      -0.06414234 Ry
     cavitation energy         =       0.02152642 Ry
     PV energy                 =      -0.08203648 Ry
     correction to one-el term =     183.48348386 Ry

     iteration # 17     ecut=    50.00 Ry     beta= 0.70
     Davidson diagonalization with overlap
     ethr =  2.60E-11,  avg # of iterations =  1.0

     negative rho (up, down):  1.590E-04 0.000E+00

     add environment contribution to local potential
     Polarization accuracy = 8.8E-12, # of iterations =  42

     total cpu time spent up to now is   204198.2 secs

     total energy              =   -3432.77985329 Ry
     estimated scf accuracy    <       0.00000009 Ry
     electrostatic embedding   =      -0.06413780 Ry
     cavitation energy         =       0.02152644 Ry
     PV energy                 =      -0.08203642 Ry
     correction to one-el term =     183.48390299 Ry

     iteration # 18     ecut=    50.00 Ry     beta= 0.70
     Davidson diagonalization with overlap
     ethr =  2.57E-11,  avg # of iterations =  1.0

     negative rho (up, down):  1.591E-04 0.000E+00

     add environment contribution to local potential
     Polarization accuracy = 8.8E-12, # of iterations =  42

     total cpu time spent up to now is   204364.2 secs

     total energy              =   -3432.77985329 Ry
     estimated scf accuracy    <       0.00000009 Ry
     electrostatic embedding   =      -0.06413621 Ry
     cavitation energy         =       0.02152649 Ry
     PV energy                 =      -0.08203633 Ry
     correction to one-el term =     183.48380374 Ry

     iteration # 19     ecut=    50.00 Ry     beta= 0.70
     Davidson diagonalization with overlap
     ethr =  2.57E-11,  avg # of iterations =  1.0

     negative rho (up, down):  1.586E-04 0.000E+00

     add environment contribution to local potential
     Polarization accuracy = 8.8E-12, # of iterations =  42

     total cpu time spent up to now is   204520.8 secs

     total energy              =   -3432.77985329 Ry
     estimated scf accuracy    <       0.00000009 Ry
     electrostatic embedding   =      -0.06413544 Ry
     cavitation energy         =       0.02152649 Ry
     PV energy                 =      -0.08203634 Ry
     correction to one-el term =     183.48392301 Ry

     iteration # 20     ecut=    50.00 Ry     beta= 0.70
     Davidson diagonalization with overlap
     ethr =  2.57E-11,  avg # of iterations =  1.0

     negative rho (up, down):  1.582E-04 0.000E+00

     add environment contribution to local potential
     Polarization accuracy = 8.8E-12, # of iterations =  42

     total cpu time spent up to now is   204665.4 secs

     total energy              =   -3432.77985330 Ry
     estimated scf accuracy    <       0.00000009 Ry
     electrostatic embedding   =      -0.06413536 Ry
     cavitation energy         =       0.02152649 Ry
     PV energy                 =      -0.08203634 Ry
     correction to one-el term =     183.48391824 Ry

     iteration # 21     ecut=    50.00 Ry     beta= 0.70
     Davidson diagonalization with overlap
     ethr =  2.56E-11,  avg # of iterations =  1.0

     negative rho (up, down):  1.580E-04 0.000E+00

     add environment contribution to local potential
     Polarization accuracy = 8.8E-12, # of iterations =  42

     total cpu time spent up to now is   204836.1 secs

     total energy              =   -3432.77985331 Ry
     estimated scf accuracy    <       0.00000009 Ry
     electrostatic embedding   =      -0.06413472 Ry
     cavitation energy         =       0.02152649 Ry
     PV energy                 =      -0.08203634 Ry
     correction to one-el term =     183.48396129 Ry

     iteration # 22     ecut=    50.00 Ry     beta= 0.70
     Davidson diagonalization with overlap
     ethr =  2.56E-11,  avg # of iterations =  1.0

     negative rho (up, down):  1.578E-04 0.000E+00

     add environment contribution to local potential
     Polarization accuracy = 8.8E-12, # of iterations =  42

     total cpu time spent up to now is   205002.6 secs

     total energy              =   -3432.77985333 Ry
     estimated scf accuracy    <       0.00000009 Ry
     electrostatic embedding   =      -0.06413479 Ry
     cavitation energy         =       0.02152649 Ry
     PV energy                 =      -0.08203635 Ry
     correction to one-el term =     183.48394286 Ry

     iteration # 23     ecut=    50.00 Ry     beta= 0.70
     Davidson diagonalization with overlap
     ethr =  2.56E-11,  avg # of iterations =  1.0

     negative rho (up, down):  1.577E-04 0.000E+00

     add environment contribution to local potential
     Polarization accuracy = 8.8E-12, # of iterations =  42

     total cpu time spent up to now is   205176.6 secs

     total energy              =   -3432.77985334 Ry
     estimated scf accuracy    <       0.00000009 Ry
     electrostatic embedding   =      -0.06413480 Ry
     cavitation energy         =       0.02152649 Ry
     PV energy                 =      -0.08203636 Ry
     correction to one-el term =     183.48391740 Ry

     iteration # 24     ecut=    50.00 Ry     beta= 0.70
     Davidson diagonalization with overlap
     ethr =  2.56E-11,  avg # of iterations =  1.0

     negative rho (up, down):  1.576E-04 0.000E+00

     add environment contribution to local potential
     Polarization accuracy = 8.8E-12, # of iterations =  42

     total cpu time spent up to now is   205323.8 secs

     total energy              =   -3432.77985335 Ry
     estimated scf accuracy    <       0.00000009 Ry
     electrostatic embedding   =      -0.06413485 Ry
     cavitation energy         =       0.02152649 Ry
     PV energy                 =      -0.08203636 Ry
     correction to one-el term =     183.48388958 Ry

     iteration # 25     ecut=    50.00 Ry     beta= 0.70
     Davidson diagonalization with overlap
     ethr =  2.56E-11,  avg # of iterations =  1.0

     negative rho (up, down):  1.576E-04 0.000E+00

     add environment contribution to local potential
     Polarization accuracy = 8.8E-12, # of iterations =  42

     total cpu time spent up to now is   205485.5 secs

     total energy              =   -3432.77985337 Ry
     estimated scf accuracy    <       0.00000009 Ry
     electrostatic embedding   =      -0.06413469 Ry
     cavitation energy         =       0.02152650 Ry
     PV energy                 =      -0.08203636 Ry
     correction to one-el term =     183.48390175 Ry

     iteration # 26     ecut=    50.00 Ry     beta= 0.70
     Davidson diagonalization with overlap
     ethr =  2.56E-11,  avg # of iterations =  1.0

     negative rho (up, down):  1.578E-04 0.000E+00

     add environment contribution to local potential
     Polarization accuracy = 8.6E-12, # of iterations =  41

     total cpu time spent up to now is   205648.9 secs

     total energy              =   -3432.77985340 Ry
     estimated scf accuracy    <       0.00000009 Ry
     electrostatic embedding   =      -0.06413446 Ry
     cavitation energy         =       0.02152650 Ry
     PV energy                 =      -0.08203636 Ry
     correction to one-el term =     183.48393401 Ry

     iteration # 27     ecut=    50.00 Ry     beta= 0.70
     Davidson diagonalization with overlap
     ethr =  2.56E-11,  avg # of iterations =  1.0

     negative rho (up, down):  1.578E-04 0.000E+00

     add environment contribution to local potential
     Polarization accuracy = 8.8E-12, # of iterations =  42

     total cpu time spent up to now is   205804.2 secs

     total energy              =   -3432.77985344 Ry
     estimated scf accuracy    <       0.00000009 Ry
     electrostatic embedding   =      -0.06413408 Ry
     cavitation energy         =       0.02152650 Ry
     PV energy                 =      -0.08203636 Ry
     correction to one-el term =     183.48399595 Ry

     iteration # 28     ecut=    50.00 Ry     beta= 0.70
     Davidson diagonalization with overlap
     ethr =  2.56E-11,  avg # of iterations =  1.0

     negative rho (up, down):  1.580E-04 0.000E+00

     add environment contribution to local potential
     Polarization accuracy = 8.8E-12, # of iterations =  42

     total cpu time spent up to now is   205958.9 secs

     total energy              =   -3432.77985352 Ry
     estimated scf accuracy    <       0.00000009 Ry
     electrostatic embedding   =      -0.06413384 Ry
     cavitation energy         =       0.02152649 Ry
     PV energy                 =      -0.08203636 Ry
     correction to one-el term =     183.48403474 Ry

     iteration # 29     ecut=    50.00 Ry     beta= 0.70
     Davidson diagonalization with overlap
     ethr =  2.56E-11,  avg # of iterations =  1.0

     negative rho (up, down):  1.579E-04 0.000E+00

     add environment contribution to local potential
     Polarization accuracy = 8.7E-12, # of iterations =  42

     total cpu time spent up to now is   206111.8 secs

     total energy              =   -3432.77985356 Ry
     estimated scf accuracy    <       0.00000009 Ry
     electrostatic embedding   =      -0.06413398 Ry
     cavitation energy         =       0.02152649 Ry
     PV energy                 =      -0.08203637 Ry
     correction to one-el term =     183.48403877 Ry

     iteration # 30     ecut=    50.00 Ry     beta= 0.70
     Davidson diagonalization with overlap
     ethr =  2.56E-11,  avg # of iterations =  1.0

     negative rho (up, down):  1.579E-04 0.000E+00

     add environment contribution to local potential
     Polarization accuracy = 8.8E-12, # of iterations =  42

     total cpu time spent up to now is   206259.5 secs

     total energy              =   -3432.77985358 Ry
     estimated scf accuracy    <       0.00000009 Ry
     electrostatic embedding   =      -0.06413421 Ry
     cavitation energy         =       0.02152649 Ry
     PV energy                 =      -0.08203637 Ry
     correction to one-el term =     183.48399891 Ry

     iteration # 31     ecut=    50.00 Ry     beta= 0.70
     Davidson diagonalization with overlap
     ethr =  2.56E-11,  avg # of iterations =  1.0

     negative rho (up, down):  1.578E-04 0.000E+00

     add environment contribution to local potential
     Polarization accuracy = 8.8E-12, # of iterations =  42

     total cpu time spent up to now is   206411.9 secs

     total energy              =   -3432.77985360 Ry
     estimated scf accuracy    <       0.00000009 Ry
     electrostatic embedding   =      -0.06413446 Ry
     cavitation energy         =       0.02152649 Ry
     PV energy                 =      -0.08203636 Ry
     correction to one-el term =     183.48396920 Ry

     iteration # 32     ecut=    50.00 Ry     beta= 0.70
     Davidson diagonalization with overlap
     ethr =  2.56E-11,  avg # of iterations =  1.0

     negative rho (up, down):  1.578E-04 0.000E+00

     add environment contribution to local potential
     Polarization accuracy = 8.8E-12, # of iterations =  42

     total cpu time spent up to now is   206571.2 secs

     total energy              =   -3432.77985361 Ry
     estimated scf accuracy    <       0.00000009 Ry
     electrostatic embedding   =      -0.06413457 Ry
     cavitation energy         =       0.02152649 Ry
     PV energy                 =      -0.08203636 Ry
     correction to one-el term =     183.48394992 Ry

     iteration # 33     ecut=    50.00 Ry     beta= 0.70
     Davidson diagonalization with overlap
     ethr =  2.56E-11,  avg # of iterations =  1.0

     negative rho (up, down):  1.578E-04 0.000E+00

     add environment contribution to local potential
     Polarization accuracy = 8.8E-12, # of iterations =  42

     total cpu time spent up to now is   206717.3 secs

     total energy              =   -3432.77985361 Ry
     estimated scf accuracy    <       0.00000009 Ry
     electrostatic embedding   =      -0.06413464 Ry
     cavitation energy         =       0.02152649 Ry
     PV energy                 =      -0.08203636 Ry
     correction to one-el term =     183.48393615 Ry

     iteration # 34     ecut=    50.00 Ry     beta= 0.70
     Davidson diagonalization with overlap
     ethr =  2.56E-11,  avg # of iterations =  1.0

     negative rho (up, down):  1.578E-04 0.000E+00

     add environment contribution to local potential
     Polarization accuracy = 9.8E-12, # of iterations =  44

     total cpu time spent up to now is   206853.2 secs

     total energy              =   -3432.77985361 Ry
     estimated scf accuracy    <       0.00000009 Ry
     electrostatic embedding   =      -0.06413461 Ry
     cavitation energy         =       0.02152649 Ry
     PV energy                 =      -0.08203636 Ry
     correction to one-el term =     183.48393782 Ry

     iteration # 35     ecut=    50.00 Ry     beta= 0.70
     Davidson diagonalization with overlap
     ethr =  2.56E-11,  avg # of iterations =  1.0

     negative rho (up, down):  1.578E-04 0.000E+00

     add environment contribution to local potential
     Polarization accuracy = 8.8E-12, # of iterations =  42

     total cpu time spent up to now is   206991.7 secs

     total energy              =   -3432.77985361 Ry
     estimated scf accuracy    <       0.00000009 Ry
     electrostatic embedding   =      -0.06413462 Ry
     cavitation energy         =       0.02152649 Ry
     PV energy                 =      -0.08203636 Ry
     correction to one-el term =     183.48393561 Ry

     iteration # 36     ecut=    50.00 Ry     beta= 0.70
     Davidson diagonalization with overlap
     ethr =  2.56E-11,  avg # of iterations =  1.0

     negative rho (up, down):  1.578E-04 0.000E+00

     add environment contribution to local potential
     Polarization accuracy = 8.8E-12, # of iterations =  42

     total cpu time spent up to now is   207142.1 secs

     total energy              =   -3432.77985361 Ry
     estimated scf accuracy    <       0.00000009 Ry
     electrostatic embedding   =      -0.06413461 Ry
     cavitation energy         =       0.02152649 Ry
     PV energy                 =      -0.08203636 Ry
     correction to one-el term =     183.48393579 Ry

     iteration # 37     ecut=    50.00 Ry     beta= 0.70
     Davidson diagonalization with overlap
     ethr =  2.56E-11,  avg # of iterations =  1.0

     negative rho (up, down):  1.578E-04 0.000E+00

     add environment contribution to local potential
     Polarization accuracy = 8.8E-12, # of iterations =  42

     total cpu time spent up to now is   207286.3 secs

     total energy              =   -3432.77985361 Ry
     estimated scf accuracy    <       0.00000009 Ry
     electrostatic embedding   =      -0.06413461 Ry
     cavitation energy         =       0.02152649 Ry
     PV energy                 =      -0.08203636 Ry
     correction to one-el term =     183.48393514 Ry

     iteration # 38     ecut=    50.00 Ry     beta= 0.70
     Davidson diagonalization with overlap
     ethr =  2.56E-11,  avg # of iterations =  1.0

     negative rho (up, down):  1.578E-04 0.000E+00

     add environment contribution to local potential
     Polarization accuracy = 8.8E-12, # of iterations =  42
