
     Program PWSCF v.7.2 starts on 26Jul2023 at 11:22:51 
        Git branch: heads/qe-7.2
        Last git commit: b4c5e8deeb7d1863e7553a87b45f8d22c21926a5
        Last git commit date: Mon Mar 27 16:12:09 2023 +0000
        Last git commit subject: Merge branch 'merge_fix_hubbard' into 'develop'

     This program is part of the open-source Quantum ESPRESSO suite
     for quantum simulation of materials; please cite
         "P. Giannozzi et al., J. Phys.:Condens. Matter 21 395502 (2009);
         "P. Giannozzi et al., J. Phys.:Condens. Matter 29 465901 (2017);
         "P. Giannozzi et al., J. Chem. Phys. 152 154105 (2020);
          URL http://www.quantum-espresso.org", 
     in publications or presentations arising from this work. More details at
     http://www.quantum-espresso.org/quote

     Parallel version (MPI), running on    20 processors

     MPI processes distributed on     1 nodes
     95123 MiB available memory on the printing compute node when the environment starts
 
     Reading input from RuO2-110-0-01234.in

     Current dimensions of program PWSCF are:
     Max number of different atomic species (ntypx) = 10
     Max number of k-points (npk) =  40000
     Max angular momentum in pseudopotentials (lmaxx) =  4
 
     Reading input from environ.in:
     * Environ restarting
     * setting up water environment
     * using electronic solvent mode
     * setting boundary derivatives method to SCCS default
     
     file O.pbe-n-kjpaw_psl.0.1.UPF: wavefunction(s)  2P renormalized
     Message from routine setup:
     using ibrav=0 with symmetry is DISCOURAGED, use correct ibrav instead
 
     R & G space division:  proc/nbgrp/npool/nimage =      20
     Subspace diagonalization in iterative solution of the eigenvalue problem:
     one sub-group per band group will be used
     scalapack distributed-memory algorithm (size of sub-group:  2*  2 procs)

 
     Parallelization info
     --------------------
     sticks:   dense  smooth     PW     G-vecs:    dense   smooth      PW
     Min         276     110     29                54982    13912    1877
     Max         277     111     30                54993    13923    1888
     Sum        5537    2217    585              1099789   278381   37601
 
     Using Slab Decomposition
 


     bravais-lattice index     =            0
     lattice parameter (alat)  =      12.3824  a.u.
     unit-cell volume          =    5825.9133 (a.u.)^3
     number of atoms/cell      =           50
     number of atomic types    =            3
     number of electrons       =       370.00
     number of Kohn-Sham states=          222
     kinetic-energy cutoff     =      50.0000  Ry
     charge density cutoff     =     500.0000  Ry
     scf convergence threshold =      1.0E-09
     mixing beta               =       0.7000
     number of iterations used =            8  local-TF  mixing
     energy convergence thresh.=      1.0E-04
     force convergence thresh. =      1.0E-04
     Exchange-correlation= PBE
                           (   1   4   3   4   0   0   0)
     nstep                     =          200


     ================================================================================
 
                                  Environ Setup Summary

     ================================================================================
 
     Please cite

          O. Andreussi, I. Dabo and N. Marzari, J. Chem. Phys. 136, 064102 (2012)

     in publications or presentations arising from this work.

     ================================================================================
 
     Parameters
     ==========

     compensation onset threshold      =               0.1000E+00
     static permittivity               =                    78.30
     surface tension in input (dyn/cm) =                    47.90
     surface tension in internal units =               0.6153E-04
     external pressure in input (GPa)  =                    -0.36
     external pressure in inter. units =              -0.2447E-04

     Solvent Boundary
     ================

     solvent mode                      =               electronic
     derivatives method                =                    chain
     numerical core for derivatives    =                      fft
     switching function adopted        =                     SCCS
     density limit for vacuum region   =               0.5000E-02
     density limit for bulk solvent    =               0.1000E-03

     Electrostatic Setup
     ===================

     electrostatic problem to solve    =              generalized
     numerical solver adopted          =                       cg
     type of auxiliary density adopted =                     none
     numerical core for poisson        =                      fft
     type of pbc corrections           =                parabolic
     numerical core for corrections    =                      1da

     ================================================================================
 

     celldm(1)=  12.382447  celldm(2)=   0.000000  celldm(3)=   0.000000
     celldm(4)=   0.000000  celldm(5)=   0.000000  celldm(6)=   0.000000

     crystal axes: (cart. coord. in units of alat)
               a(1) = (   1.000000   0.000000   0.000000 )  
               a(2) = (   0.000000   0.908473   0.000000 )  
               a(3) = (   0.000000   0.000000   3.377790 )  

     reciprocal axes: (cart. coord. in units 2 pi/alat)
               b(1) = (  1.000000  0.000000  0.000000 )  
               b(2) = (  0.000000  1.100748  0.000000 )  
               b(3) = (  0.000000  0.000000  0.296052 )  


     PseudoPot. # 1 for O  read from file:
     /gpfs/group/ixd4/default/Simon/pseudopotentials/materialscloud/SSSP_1.3.0_PBE_efficiency/O.pbe-n-kjpaw_psl.0.1.UPF
     MD5 check sum: 0234752ac141de4415c5fc33072bef88
     Pseudo is Projector augmented-wave + core cor, Zval =  6.0
     Generated using "atomic" code by A. Dal Corso  v.5.0.99 svn rev. 10869
     Shape of augmentation charge: BESSEL
     Using radial grid of 1095 points,  4 beta functions with: 
                l(1) =   0
                l(2) =   0
                l(3) =   1
                l(4) =   1
     Q(r) pseudized with 0 coefficients 


     PseudoPot. # 2 for Ru read from file:
     /gpfs/group/ixd4/default/Simon/pseudopotentials/materialscloud/SSSP_1.3.0_PBE_efficiency/Ru_ONCV_PBE-1.0.oncvpsp.upf
     MD5 check sum: be037bb81c227cfb9b1461a9f099f4bd
     Pseudo is Norm-conserving, Zval = 16.0
     Generated using ONCVPSP code by D. R. Hamann
     Using radial grid of 1458 points,  6 beta functions with: 
                l(1) =   0
                l(2) =   0
                l(3) =   1
                l(4) =   1
                l(5) =   2
                l(6) =   2

     PseudoPot. # 3 for H  read from file:
     /gpfs/group/ixd4/default/Simon/pseudopotentials/materialscloud/SSSP_1.3.0_PBE_efficiency/H.pbe-rrkjus_psl.1.0.0.UPF
     MD5 check sum: f52b6d4d1c606e5624b1dc7b2218f220
     Pseudo is Ultrasoft, Zval =  1.0
     Generated using "atomic" code by A. Dal Corso  v.5.1
     Using radial grid of  929 points,  2 beta functions with: 
                l(1) =   0
                l(2) =   0
     Q(r) pseudized with 0 coefficients 


     atomic species   valence    mass     pseudopotential
        O              6.00    15.99940     O ( 1.00)
        Ru            16.00   101.07000     Ru( 1.00)
        H              1.00     1.00794     H ( 1.00)

      2 Sym. Ops. (no inversion) found



   Cartesian axes

     site n.     atom                  positions (alat units)
         1           O   tau(   1) = (   0.0405757   0.3975124   0.8861051  )
         2           O   tau(   2) = (   0.4564738   0.3919883   0.8996011  )
         3           O   tau(   3) = (  -0.0010160   0.0124548   1.0034704  )
         4           O   tau(   4) = (   0.4969067   0.0115883   1.0103921  )
         5           Ru  tau(   5) = (   0.2483419  -0.0070886   1.2114674  )
         6           Ru  tau(   6) = (   0.7480010  -0.0076930   1.2087417  )
         7           O   tau(   7) = (   0.2475741   0.2653329   1.2233046  )
         8           O   tau(   8) = (   0.7496737   0.2731783   1.2099590  )
         9           Ru  tau(   9) = (   0.0034238   0.4457879   1.2162073  )
        10           Ru  tau(  10) = (   0.4933857   0.4446312   1.2055893  )
        11           O   tau(  11) = (   0.2470595   0.6280463   1.1953197  )
        12           O   tau(  12) = (   0.7497529   0.6203173   1.1868951  )
        13           O   tau(  13) = (  -0.0036563  -0.0104576   1.3909068  )
        14           O   tau(  14) = (   0.4996244  -0.0082993   1.3893159  )
        15           O   tau(  15) = (  -0.0024047   0.4596109   1.5064187  )
        16           O   tau(  16) = (   0.4993397   0.4594924   1.4985229  )
        17           Ru  tau(  17) = (  -0.0028380   0.0019932   1.6888985  )
        18           Ru  tau(  18) = (   0.4993253   0.0019678   1.6888985  )
        19           O   tau(  19) = (   0.2485968   0.1779587   1.6888985  )
        20           O   tau(  20) = (   0.7474699   0.1799714   1.6888985  )
        21           Ru  tau(  21) = (   0.2516543   0.4576289   1.6888985  )
        22           Ru  tau(  22) = (   0.7452230   0.4583888   1.6888985  )
        23           O   tau(  23) = (   0.2495027   0.7358938   1.6888985  )
        24           O   tau(  24) = (   0.7472806   0.7344271   1.6888985  )
        25           O   tau(  25) = (  -0.0024047   0.4596109   1.8713750  )
        26           O   tau(  26) = (   0.4993397   0.4594924   1.8792708  )
        27           O   tau(  27) = (  -0.0036563  -0.0104576   1.9868869  )
        28           O   tau(  28) = (   0.4996244  -0.0082993   1.9884778  )
        29           Ru  tau(  29) = (   0.2483419  -0.0070886   2.1663263  )
        30           Ru  tau(  30) = (   0.7480010  -0.0076930   2.1690520  )
        31           O   tau(  31) = (   0.2475741   0.2653329   2.1544891  )
        32           O   tau(  32) = (   0.7496737   0.2731783   2.1678347  )
        33           Ru  tau(  33) = (   0.0034238   0.4457879   2.1615864  )
        34           Ru  tau(  34) = (   0.4933857   0.4446312   2.1722044  )
        35           O   tau(  35) = (   0.2470595   0.6280463   2.1824740  )
        36           O   tau(  36) = (   0.7497529   0.6203173   2.1908986  )
        37           O   tau(  37) = (  -0.0010160   0.0124548   2.3743267  )
        38           O   tau(  38) = (   0.4969067   0.0115883   2.3674050  )
        39           O   tau(  39) = (   0.0405757   0.3975124   2.4916886  )
        40           O   tau(  40) = (   0.4564738   0.3919883   2.4781926  )
        41           H   tau(  41) = (   0.1995373   0.4036321   0.8686685  )
        42           H   tau(  42) = (   0.1995373   0.4036321   2.5091219  )
        43           H   tau(  43) = (   0.5655914   0.4472583   0.8155288  )
        44           H   tau(  44) = (   0.5655914   0.4472583   2.5622616  )
        45           H   tau(  45) = (   0.0094425   0.2632350   0.8830862  )
        46           H   tau(  46) = (   0.0094425   0.2632350   2.4947041  )
        47           H   tau(  47) = (   0.4943102   0.1366095   0.9462975  )
        48           H   tau(  48) = (   0.4943102   0.1366095   2.4314928  )
        49           H   tau(  49) = (   0.0002254   0.8245302   0.8993383  )
        50           H   tau(  50) = (   0.0002254   0.8245302   2.4784520  )

     number of k points=     2  Marzari-Vanderbilt smearing, width (Ry)=  0.0300
                       cart. coord. in units 2pi/alat
        k(    1) = (   0.2500000   0.2751871   0.0000000), wk =   1.0000000
        k(    2) = (  -0.2500000   0.2751871   0.0000000), wk =   1.0000000

     Dense  grid:  1099789 G-vectors     FFT dimensions: (  90,  81, 300)

     Smooth grid:   278381 G-vectors     FFT dimensions: (  60,  54, 192)

     Estimated max dynamical RAM per process >     180.72 MB

     Estimated total dynamical RAM >       3.53 GB

     Check: negative core charge=   -0.000001

     Initial potential from superposition of free atoms

     starting charge     369.9932, renormalised to     370.0000

     add environment contribution to local potential
     Polarization accuracy = 4.2E-12, # of iterations =  24

     negative rho (up, down):  2.513E-05 0.000E+00
     Starting wfcs are  242 randomized atomic wfcs
     Checking if some PAW data can be deallocated... 

     total cpu time spent up to now is      986.2 secs

     per-process dynamical memory:   150.9 Mb

     Self-consistent Calculation

     iteration #  1     ecut=    50.00 Ry     beta= 0.70
     Davidson diagonalization with overlap
     ethr =  1.00E-02,  avg # of iterations =  3.5

     negative rho (up, down):  1.838E-08 0.000E+00

     total cpu time spent up to now is     1288.5 secs

     total energy              =   -3438.14187742 Ry
     estimated scf accuracy    <       8.52408293 Ry
     electrostatic embedding   =      -0.00187866 Ry
     cavitation energy         =       0.01952984 Ry
     PV energy                 =      -0.08683282 Ry
     correction to one-el term =     226.54800655 Ry

     iteration #  2     ecut=    50.00 Ry     beta= 0.70
     Davidson diagonalization with overlap
     ethr =  2.30E-03,  avg # of iterations =  2.0

     total cpu time spent up to now is     1540.1 secs

     total energy              =   -3440.00373953 Ry
     estimated scf accuracy    <       1.11771646 Ry
     electrostatic embedding   =      -0.00309685 Ry
     cavitation energy         =       0.01919158 Ry
     PV energy                 =      -0.08821380 Ry
     correction to one-el term =     226.55219119 Ry

     iteration #  3     ecut=    50.00 Ry     beta= 0.70
     Davidson diagonalization with overlap
     ethr =  3.02E-04,  avg # of iterations =  5.0

     total cpu time spent up to now is     1849.5 secs

     total energy              =   -3440.10652608 Ry
     estimated scf accuracy    <       0.46323415 Ry
     electrostatic embedding   =      -0.00347516 Ry
     cavitation energy         =       0.01929796 Ry
     PV energy                 =      -0.08808590 Ry
     correction to one-el term =     226.55303592 Ry

     iteration #  4     ecut=    50.00 Ry     beta= 0.70
     Davidson diagonalization with overlap
     ethr =  1.25E-04,  avg # of iterations =  1.5

     total cpu time spent up to now is     2145.3 secs

     total energy              =   -3440.09568973 Ry
     estimated scf accuracy    <       0.24548200 Ry
     electrostatic embedding   =      -0.00362540 Ry
     cavitation energy         =       0.01944328 Ry
     PV energy                 =      -0.08770297 Ry
     correction to one-el term =     226.55316070 Ry

     iteration #  5     ecut=    50.00 Ry     beta= 0.70
     Davidson diagonalization with overlap
     ethr =  6.63E-05,  avg # of iterations =  3.5

     total cpu time spent up to now is     2343.6 secs

     total energy              =   -3440.08708942 Ry
     estimated scf accuracy    <       0.23214664 Ry
     electrostatic embedding   =      -0.00375022 Ry
     cavitation energy         =       0.01987956 Ry
     PV energy                 =      -0.08676710 Ry
     correction to one-el term =     226.55294796 Ry

     iteration #  6     ecut=    50.00 Ry     beta= 0.70
     Davidson diagonalization with overlap
     ethr =  6.27E-05,  avg # of iterations =  2.5

     total cpu time spent up to now is     2555.4 secs

     total energy              =   -3440.08504939 Ry
     estimated scf accuracy    <       0.13743646 Ry
     electrostatic embedding   =      -0.00371896 Ry
     cavitation energy         =       0.02083113 Ry
     PV energy                 =      -0.08493712 Ry
     correction to one-el term =     226.55200808 Ry

     iteration #  7     ecut=    50.00 Ry     beta= 0.70
     Davidson diagonalization with overlap
     ethr =  3.71E-05,  avg # of iterations =  2.0

     add environment contribution to local potential
     Polarization accuracy = 3.4E-12, # of iterations =  49

     total cpu time spent up to now is     2807.2 secs

     total energy              =   -3440.07307761 Ry
     estimated scf accuracy    <       0.07888769 Ry
     electrostatic embedding   =      -0.00359206 Ry
     cavitation energy         =       0.02132477 Ry
     PV energy                 =      -0.08398723 Ry
     correction to one-el term =     226.55126642 Ry

     iteration #  8     ecut=    50.00 Ry     beta= 0.70
     Davidson diagonalization with overlap
     ethr =  2.13E-05,  avg # of iterations = 10.0

     negative rho (up, down):  2.437E-07 0.000E+00

     add environment contribution to local potential
     Polarization accuracy = 3.9E-12, # of iterations =  52

     total cpu time spent up to now is     3090.6 secs

     total energy              =   -3440.08864486 Ry
     estimated scf accuracy    <       0.07266620 Ry
     electrostatic embedding   =      -0.04256881 Ry
     cavitation energy         =       0.02241632 Ry
     PV energy                 =      -0.08194346 Ry
     correction to one-el term =     178.22504428 Ry

     iteration #  9     ecut=    50.00 Ry     beta= 0.70
     Davidson diagonalization with overlap
     ethr =  1.96E-05,  avg # of iterations =  1.0

     negative rho (up, down):  1.155E-03 0.000E+00

     add environment contribution to local potential
     Polarization accuracy = 6.1E-12, # of iterations =  52

     total cpu time spent up to now is     3372.4 secs

     total energy              =   -3440.09022235 Ry
     estimated scf accuracy    <       0.03832009 Ry
     electrostatic embedding   =      -0.04317018 Ry
     cavitation energy         =       0.02244309 Ry
     PV energy                 =      -0.08154486 Ry
     correction to one-el term =     177.47957245 Ry

     iteration # 10     ecut=    50.00 Ry     beta= 0.70
     Davidson diagonalization with overlap
     ethr =  1.04E-05,  avg # of iterations =  2.0

     negative rho (up, down):  1.894E-03 0.000E+00

     add environment contribution to local potential
     Polarization accuracy = 5.5E-12, # of iterations =  52

     total cpu time spent up to now is     3646.1 secs

     total energy              =   -3440.09240329 Ry
     estimated scf accuracy    <       0.01171773 Ry
     electrostatic embedding   =      -0.04367067 Ry
     cavitation energy         =       0.02226434 Ry
     PV energy                 =      -0.08144019 Ry
     correction to one-el term =     177.61749706 Ry

     iteration # 11     ecut=    50.00 Ry     beta= 0.70
     Davidson diagonalization with overlap
     ethr =  3.17E-06,  avg # of iterations =  6.0

     negative rho (up, down):  1.844E-03 0.000E+00

     add environment contribution to local potential
     Polarization accuracy = 3.6E-12, # of iterations =  49

     total cpu time spent up to now is     3940.0 secs

     total energy              =   -3440.09272962 Ry
     estimated scf accuracy    <       0.00866937 Ry
     electrostatic embedding   =      -0.04285671 Ry
     cavitation energy         =       0.02193260 Ry
     PV energy                 =      -0.08160688 Ry
     correction to one-el term =     178.79195200 Ry

     iteration # 12     ecut=    50.00 Ry     beta= 0.70
     Davidson diagonalization with overlap
     ethr =  2.34E-06,  avg # of iterations =  5.0

     negative rho (up, down):  2.112E-04 0.000E+00

     add environment contribution to local potential
     Polarization accuracy = 3.9E-12, # of iterations =  45

     total cpu time spent up to now is     4248.2 secs

     total energy              =   -3440.09408470 Ry
     estimated scf accuracy    <       0.00313145 Ry
     electrostatic embedding   =      -0.04186901 Ry
     cavitation energy         =       0.02171126 Ry
     PV energy                 =      -0.08179228 Ry
     correction to one-el term =     179.99427129 Ry

     iteration # 13     ecut=    50.00 Ry     beta= 0.70
     Davidson diagonalization with overlap
     ethr =  8.46E-07,  avg # of iterations =  5.5

     negative rho (up, down):  1.402E-07 0.000E+00

     add environment contribution to local potential
     Polarization accuracy = 7.5E-12, # of iterations =  44

     total cpu time spent up to now is     4530.6 secs

     total energy              =   -3440.09570727 Ry
     estimated scf accuracy    <       0.00149880 Ry
     electrostatic embedding   =      -0.03942528 Ry
     cavitation energy         =       0.02143905 Ry
     PV energy                 =      -0.08216028 Ry
     correction to one-el term =     182.04942949 Ry

     iteration # 14     ecut=    50.00 Ry     beta= 0.70
     Davidson diagonalization with overlap
     ethr =  4.05E-07,  avg # of iterations =  5.0

     negative rho (up, down):  1.403E-06 0.000E+00

     add environment contribution to local potential
     Polarization accuracy = 4.4E-12, # of iterations =  44

     total cpu time spent up to now is     4805.6 secs

     total energy              =   -3440.09653953 Ry
     estimated scf accuracy    <       0.00077413 Ry
     electrostatic embedding   =      -0.03733936 Ry
     cavitation energy         =       0.02134525 Ry
     PV energy                 =      -0.08236881 Ry
     correction to one-el term =     183.63054995 Ry

     iteration # 15     ecut=    50.00 Ry     beta= 0.70
     Davidson diagonalization with overlap
     ethr =  2.09E-07,  avg # of iterations =  5.5

     negative rho (up, down):  4.376E-05 0.000E+00

     add environment contribution to local potential
     Polarization accuracy = 3.3E-12, # of iterations =  44

     total cpu time spent up to now is     5118.0 secs

     total energy              =   -3440.09693261 Ry
     estimated scf accuracy    <       0.00033766 Ry
     electrostatic embedding   =      -0.03562026 Ry
     cavitation energy         =       0.02134228 Ry
     PV energy                 =      -0.08245762 Ry
     correction to one-el term =     184.96585925 Ry

     iteration # 16     ecut=    50.00 Ry     beta= 0.70
     Davidson diagonalization with overlap
     ethr =  9.13E-08,  avg # of iterations = 18.5

     negative rho (up, down):  9.639E-04 0.000E+00

     add environment contribution to local potential
     Polarization accuracy = 3.3E-12, # of iterations =  44

     total cpu time spent up to now is     5392.9 secs

     total energy              =   -3440.09697740 Ry
     estimated scf accuracy    <       0.00021239 Ry
     electrostatic embedding   =      -0.03498840 Ry
     cavitation energy         =       0.02133671 Ry
     PV energy                 =      -0.08247328 Ry
     correction to one-el term =     185.33846129 Ry

     iteration # 17     ecut=    50.00 Ry     beta= 0.70
     Davidson diagonalization with overlap
     ethr =  5.74E-08,  avg # of iterations =  2.0

     negative rho (up, down):  6.713E-04 0.000E+00

     add environment contribution to local potential
     Polarization accuracy = 5.9E-12, # of iterations =  44

     total cpu time spent up to now is     5710.1 secs

     total energy              =   -3440.09701068 Ry
     estimated scf accuracy    <       0.00008418 Ry
     electrostatic embedding   =      -0.03432821 Ry
     cavitation energy         =       0.02134731 Ry
     PV energy                 =      -0.08246659 Ry
     correction to one-el term =     185.57176825 Ry

     iteration # 18     ecut=    50.00 Ry     beta= 0.70
     Davidson diagonalization with overlap
     ethr =  2.28E-08,  avg # of iterations =  2.0

     negative rho (up, down):  2.409E-04 0.000E+00

     add environment contribution to local potential
     Polarization accuracy = 5.6E-12, # of iterations =  44

     total cpu time spent up to now is     6012.9 secs

     total energy              =   -3440.09702049 Ry
     estimated scf accuracy    <       0.00001670 Ry
     electrostatic embedding   =      -0.03422666 Ry
     cavitation energy         =       0.02136409 Ry
     PV energy                 =      -0.08241127 Ry
     correction to one-el term =     185.56087029 Ry

     iteration # 19     ecut=    50.00 Ry     beta= 0.70
     Davidson diagonalization with overlap
     ethr =  4.51E-09,  avg # of iterations =  3.0

     negative rho (up, down):  2.468E-04 0.000E+00

     add environment contribution to local potential
     Polarization accuracy = 6.3E-12, # of iterations =  44

     total cpu time spent up to now is     6318.5 secs

     total energy              =   -3440.09702234 Ry
     estimated scf accuracy    <       0.00001991 Ry
     electrostatic embedding   =      -0.03407023 Ry
     cavitation energy         =       0.02135180 Ry
     PV energy                 =      -0.08241574 Ry
     correction to one-el term =     185.58740399 Ry

     iteration # 20     ecut=    50.00 Ry     beta= 0.70
     Davidson diagonalization with overlap
     ethr =  4.51E-09,  avg # of iterations =  2.0

     negative rho (up, down):  1.161E-04 0.000E+00

     add environment contribution to local potential
     Polarization accuracy = 7.0E-12, # of iterations =  44

     total cpu time spent up to now is     6627.7 secs

     total energy              =   -3440.09702431 Ry
     estimated scf accuracy    <       0.00000490 Ry
     electrostatic embedding   =      -0.03390218 Ry
     cavitation energy         =       0.02135569 Ry
     PV energy                 =      -0.08240624 Ry
     correction to one-el term =     185.61712889 Ry

     iteration # 21     ecut=    50.00 Ry     beta= 0.70
     Davidson diagonalization with overlap
     ethr =  1.32E-09,  avg # of iterations =  2.0

     negative rho (up, down):  7.393E-05 0.000E+00

     add environment contribution to local potential
     Polarization accuracy = 6.7E-12, # of iterations =  44

     total cpu time spent up to now is     6952.5 secs

     total energy              =   -3440.09702583 Ry
     estimated scf accuracy    <       0.00000130 Ry
     electrostatic embedding   =      -0.03376830 Ry
     cavitation energy         =       0.02135192 Ry
     PV energy                 =      -0.08240090 Ry
     correction to one-el term =     185.63537453 Ry

     iteration # 22     ecut=    50.00 Ry     beta= 0.70
     Davidson diagonalization with overlap
     ethr =  3.52E-10,  avg # of iterations =  2.0

     negative rho (up, down):  7.957E-05 0.000E+00

     add environment contribution to local potential
     Polarization accuracy = 6.4E-12, # of iterations =  44

     total cpu time spent up to now is     7255.4 secs

     total energy              =   -3440.09702647 Ry
     estimated scf accuracy    <       0.00000138 Ry
     electrostatic embedding   =      -0.03370828 Ry
     cavitation energy         =       0.02134732 Ry
     PV energy                 =      -0.08240413 Ry
     correction to one-el term =     185.64028860 Ry

     iteration # 23     ecut=    50.00 Ry     beta= 0.70
     Davidson diagonalization with overlap
     ethr =  3.52E-10,  avg # of iterations =  2.0

     negative rho (up, down):  8.756E-05 0.000E+00

     add environment contribution to local potential
     Polarization accuracy = 6.2E-12, # of iterations =  44

     total cpu time spent up to now is     7570.0 secs

     total energy              =   -3440.09702699 Ry
     estimated scf accuracy    <       0.00000056 Ry
     electrostatic embedding   =      -0.03366684 Ry
     cavitation energy         =       0.02134411 Ry
     PV energy                 =      -0.08240748 Ry
     correction to one-el term =     185.64899065 Ry

     iteration # 24     ecut=    50.00 Ry     beta= 0.70
     Davidson diagonalization with overlap
     ethr =  1.51E-10,  avg # of iterations =  2.0

     negative rho (up, down):  9.437E-05 0.000E+00

     add environment contribution to local potential
     Polarization accuracy = 6.0E-12, # of iterations =  44

     total cpu time spent up to now is     7874.9 secs

     total energy              =   -3440.09702740 Ry
     estimated scf accuracy    <       0.00000018 Ry
     electrostatic embedding   =      -0.03364019 Ry
     cavitation energy         =       0.02134256 Ry
     PV energy                 =      -0.08240978 Ry
     correction to one-el term =     185.65552462 Ry

     iteration # 25     ecut=    50.00 Ry     beta= 0.70
     Davidson diagonalization with overlap
     ethr =  4.81E-11,  avg # of iterations =  2.0

     negative rho (up, down):  1.050E-04 0.000E+00

     add environment contribution to local potential
     Polarization accuracy = 5.9E-12, # of iterations =  44

     total cpu time spent up to now is     8200.2 secs

     total energy              =   -3440.09702768 Ry
     estimated scf accuracy    <       0.00000011 Ry
     electrostatic embedding   =      -0.03363069 Ry
     cavitation energy         =       0.02134196 Ry
     PV energy                 =      -0.08241120 Ry
     correction to one-el term =     185.65860035 Ry

     iteration # 26     ecut=    50.00 Ry     beta= 0.70
     Davidson diagonalization with overlap
     ethr =  3.02E-11,  avg # of iterations =  1.0

     negative rho (up, down):  1.128E-04 0.000E+00

     add environment contribution to local potential
     Polarization accuracy = 5.9E-12, # of iterations =  44

     total cpu time spent up to now is     8512.0 secs

     total energy              =   -3440.09702790 Ry
     estimated scf accuracy    <       0.00000008 Ry
     electrostatic embedding   =      -0.03362857 Ry
     cavitation energy         =       0.02134196 Ry
     PV energy                 =      -0.08241192 Ry
     correction to one-el term =     185.66094884 Ry

     iteration # 27     ecut=    50.00 Ry     beta= 0.70
     Davidson diagonalization with overlap
     ethr =  2.23E-11,  avg # of iterations =  1.0

     negative rho (up, down):  1.216E-04 0.000E+00

     add environment contribution to local potential
     Polarization accuracy = 5.8E-12, # of iterations =  44

     total cpu time spent up to now is     8838.9 secs

     total energy              =   -3440.09702814 Ry
     estimated scf accuracy    <       0.00000008 Ry
     electrostatic embedding   =      -0.03362876 Ry
     cavitation energy         =       0.02134212 Ry
     PV energy                 =      -0.08241216 Ry
     correction to one-el term =     185.66251077 Ry

     iteration # 28     ecut=    50.00 Ry     beta= 0.70
     Davidson diagonalization with overlap
     ethr =  2.10E-11,  avg # of iterations =  2.0

     negative rho (up, down):  1.270E-04 0.000E+00

     add environment contribution to local potential
     Polarization accuracy = 5.8E-12, # of iterations =  44

     total cpu time spent up to now is     9161.6 secs

     total energy              =   -3440.09702864 Ry
     estimated scf accuracy    <       0.00000007 Ry
     electrostatic embedding   =      -0.03362411 Ry
     cavitation energy         =       0.02134219 Ry
     PV energy                 =      -0.08241233 Ry
     correction to one-el term =     185.66540493 Ry

     iteration # 29     ecut=    50.00 Ry     beta= 0.70
     Davidson diagonalization with overlap
     ethr =  1.79E-11,  avg # of iterations =  1.0

     negative rho (up, down):  1.317E-04 0.000E+00

     add environment contribution to local potential
     Polarization accuracy = 5.7E-12, # of iterations =  44

     total cpu time spent up to now is     9452.8 secs

     total energy              =   -3440.09702923 Ry
     estimated scf accuracy    <       0.00000006 Ry
     electrostatic embedding   =      -0.03362166 Ry
     cavitation energy         =       0.02134226 Ry
     PV energy                 =      -0.08241203 Ry
     correction to one-el term =     185.66714517 Ry

     iteration # 30     ecut=    50.00 Ry     beta= 0.70
     Davidson diagonalization with overlap
     ethr =  1.61E-11,  avg # of iterations =  2.0

     negative rho (up, down):  1.389E-04 0.000E+00

     add environment contribution to local potential
     Polarization accuracy = 5.6E-12, # of iterations =  44

     total cpu time spent up to now is     9771.5 secs

     total energy              =   -3440.09703015 Ry
     estimated scf accuracy    <       0.00000005 Ry
     electrostatic embedding   =      -0.03361797 Ry
     cavitation energy         =       0.02134204 Ry
     PV energy                 =      -0.08241186 Ry
     correction to one-el term =     185.66858420 Ry

     iteration # 31     ecut=    50.00 Ry     beta= 0.70
     Davidson diagonalization with overlap
     ethr =  1.48E-11,  avg # of iterations =  1.0

     negative rho (up, down):  1.400E-04 0.000E+00

     add environment contribution to local potential
     Polarization accuracy = 5.3E-12, # of iterations =  44

     total cpu time spent up to now is    10069.5 secs

     total energy              =   -3440.09703106 Ry
     estimated scf accuracy    <       0.00000005 Ry
     electrostatic embedding   =      -0.03361892 Ry
     cavitation energy         =       0.02134200 Ry
     PV energy                 =      -0.08241201 Ry
     correction to one-el term =     185.66917538 Ry

     iteration # 32     ecut=    50.00 Ry     beta= 0.70
     Davidson diagonalization with overlap
     ethr =  1.38E-11,  avg # of iterations =  2.0

     negative rho (up, down):  1.413E-04 0.000E+00

     add environment contribution to local potential
     Polarization accuracy = 4.9E-12, # of iterations =  44

     total cpu time spent up to now is    10348.4 secs

     total energy              =   -3440.09703367 Ry
     estimated scf accuracy    <       0.00000004 Ry
     electrostatic embedding   =      -0.03361888 Ry
     cavitation energy         =       0.02134146 Ry
     PV energy                 =      -0.08241228 Ry
     correction to one-el term =     185.66820936 Ry

     iteration # 33     ecut=    50.00 Ry     beta= 0.70
     Davidson diagonalization with overlap
     ethr =  1.19E-11,  avg # of iterations =  9.0

     negative rho (up, down):  1.361E-04 0.000E+00

     add environment contribution to local potential
     Polarization accuracy = 4.6E-12, # of iterations =  44

     total cpu time spent up to now is    10605.5 secs

     total energy              =   -3440.09703903 Ry
     estimated scf accuracy    <       0.00000003 Ry
     electrostatic embedding   =      -0.03362594 Ry
     cavitation energy         =       0.02134142 Ry
     PV energy                 =      -0.08241286 Ry
     correction to one-el term =     185.66637571 Ry

     iteration # 34     ecut=    50.00 Ry     beta= 0.70
     Davidson diagonalization with overlap
     ethr =  8.39E-12,  avg # of iterations =  2.0

     negative rho (up, down):  1.283E-04 0.000E+00

     add environment contribution to local potential
     Polarization accuracy = 4.4E-12, # of iterations =  44

     total cpu time spent up to now is    10919.9 secs

     total energy              =   -3440.09704045 Ry
     estimated scf accuracy    <       0.00000002 Ry
     electrostatic embedding   =      -0.03362702 Ry
     cavitation energy         =       0.02134157 Ry
     PV energy                 =      -0.08241308 Ry
     correction to one-el term =     185.66586462 Ry

     iteration # 35     ecut=    50.00 Ry     beta= 0.70
     Davidson diagonalization with overlap
     ethr =  4.99E-12,  avg # of iterations =  5.0

     negative rho (up, down):  1.233E-04 0.000E+00

     add environment contribution to local potential
     Polarization accuracy = 4.3E-12, # of iterations =  44

     total cpu time spent up to now is    11223.9 secs

     total energy              =   -3440.09704688 Ry
     estimated scf accuracy    <       0.00000001 Ry
     electrostatic embedding   =      -0.03362863 Ry
     cavitation energy         =       0.02134187 Ry
     PV energy                 =      -0.08241268 Ry
     correction to one-el term =     185.66523781 Ry

     iteration # 36     ecut=    50.00 Ry     beta= 0.70
     Davidson diagonalization with overlap
     ethr =  2.93E-12,  avg # of iterations =  2.0

     negative rho (up, down):  1.214E-04 0.000E+00

     add environment contribution to local potential
     Polarization accuracy = 3.1E-12, # of iterations =  44

     total cpu time spent up to now is    11509.5 secs

     total energy              =   -3440.09704840 Ry
     estimated scf accuracy    <          7.3E-09 Ry
     electrostatic embedding   =      -0.03362944 Ry
     cavitation energy         =       0.02134203 Ry
     PV energy                 =      -0.08241267 Ry
     correction to one-el term =     185.66468872 Ry

     iteration # 37     ecut=    50.00 Ry     beta= 0.70
     Davidson diagonalization with overlap
     ethr =  1.98E-12,  avg # of iterations =  3.0

     negative rho (up, down):  1.227E-04 0.000E+00

     add environment contribution to local potential
     Polarization accuracy = 2.4E-12, # of iterations =  44

     total cpu time spent up to now is    11776.3 secs

     total energy              =   -3440.09705058 Ry
     estimated scf accuracy    <          2.2E-09 Ry
     electrostatic embedding   =      -0.03362731 Ry
     cavitation energy         =       0.02134219 Ry
     PV energy                 =      -0.08241227 Ry
     correction to one-el term =     185.66527137 Ry

     iteration # 38     ecut=    50.00 Ry     beta= 0.70
     Davidson diagonalization with overlap
     ethr =  6.04E-13,  avg # of iterations =  4.0

     negative rho (up, down):  1.266E-04 0.000E+00

     the potential shift due to the Gaussian-smeared nuclei is    -1.3573 ev

     total cpu time spent up to now is    12041.5 secs

     End of self-consistent calculation

          k = 0.2500 0.2752 0.0000 ( 34780 PWs)   bands (ev):

   -76.3669 -76.3633 -76.3607 -76.3509 -76.3170 -76.3045 -76.1789 -76.1695
   -76.1214 -76.1086 -76.0722 -76.0595 -46.9234 -46.9110 -46.8765 -46.8289
   -46.7391 -46.7266 -46.3844 -46.3791 -46.3051 -46.2933 -46.2715 -46.2536
   -46.2410 -46.2372 -46.2284 -46.2043 -46.1896 -46.1751 -46.1639 -46.1624
   -46.1588 -46.1541 -46.1506 -46.1465 -46.1386 -46.1186 -46.1096 -46.0974
   -46.0768 -46.0641 -46.0217 -45.9983 -45.9595 -45.9467 -45.8940 -45.8814
   -24.5136 -24.4962 -23.2102 -23.1721 -22.9991 -22.9815 -22.8423 -22.7650
   -22.7396 -22.4612 -22.4222 -22.3795 -22.1422 -22.0688 -22.0066 -21.8412
   -21.8310 -21.8254 -21.7750 -21.6523 -21.6192 -21.6033 -21.5395 -21.4888
   -21.4803 -21.4561 -21.4093 -21.2926 -12.2378 -12.2205 -11.2150 -11.1382
   -11.0596 -11.0287 -10.9709 -10.8583 -10.8367 -10.5183 -10.4486 -10.4303
   -10.3919 -10.1616 -10.1265 -10.1141 -10.0530  -9.9942  -9.9582  -9.9164
    -9.7413  -9.7311  -9.6340  -9.5784  -9.5238  -9.4902  -9.3258  -9.2729
    -9.2244  -9.1466  -9.0431  -8.9718  -8.8100  -8.7902  -8.6697  -8.5751
    -8.5718  -8.3835  -8.3205  -8.3108  -8.2286  -8.1731  -8.0799  -7.9999
    -7.9891  -7.8568  -7.7795  -7.7565  -7.6357  -7.5852  -7.4662  -7.3837
    -7.3473  -7.3437  -7.2052  -7.1919  -7.1450  -7.1169  -7.0814  -7.0125
    -6.9432  -6.8427  -6.8300  -6.6965  -6.6661  -6.6045  -6.5422  -6.4783
    -6.4007  -6.3037  -6.2142  -6.1674  -6.1487  -6.1050  -5.9994  -5.8618
    -5.8525  -5.8162  -5.7185  -5.6494  -5.6087  -5.4548  -5.3862  -5.3229
    -4.0318  -3.9768  -3.8954  -3.7968  -3.7639  -3.7424  -3.6760  -3.6735
    -3.6323  -3.6028  -3.5904  -3.5828  -3.5538  -3.4794  -3.4556  -3.4430
    -3.3860  -3.3460  -3.3295  -3.2550  -3.1805  -3.1392  -3.0961  -3.0539
    -2.9050  -2.8621  -2.8014  -2.5444  -2.2310  -2.2178  -2.1462  -1.9653
    -1.8627  -1.7966  -1.6704  -1.5853  -1.1331  -0.9924  -0.7875  -0.5974
    -0.5322  -0.5195  -0.4229  -0.0291   0.1364   0.3207   0.3598   0.6126
     0.6932   0.9688   0.9869   1.0509   1.0749   1.1229   1.1658   1.2967
     1.5678   1.6929   1.9673   2.0777   2.1082   2.3341

          k =-0.2500 0.2752 0.0000 ( 34780 PWs)   bands (ev):

   -76.3669 -76.3633 -76.3607 -76.3509 -76.3170 -76.3045 -76.1789 -76.1695
   -76.1214 -76.1086 -76.0722 -76.0595 -46.9234 -46.9110 -46.8765 -46.8289
   -46.7391 -46.7266 -46.3844 -46.3791 -46.3051 -46.2933 -46.2715 -46.2536
   -46.2411 -46.2372 -46.2285 -46.2043 -46.1897 -46.1744 -46.1635 -46.1621
   -46.1589 -46.1540 -46.1506 -46.1464 -46.1385 -46.1184 -46.1096 -46.0974
   -46.0777 -46.0650 -46.0218 -45.9983 -45.9592 -45.9464 -45.8941 -45.8814
   -24.5137 -24.4963 -23.2055 -23.1667 -23.0117 -22.9942 -22.8397 -22.7525
   -22.7276 -22.4670 -22.4299 -22.3830 -22.1368 -22.0663 -22.0073 -21.8489
   -21.8318 -21.8261 -21.7660 -21.6572 -21.6149 -21.6020 -21.5433 -21.4889
   -21.4811 -21.4557 -21.4078 -21.2920 -12.2341 -12.2169 -11.2582 -11.1926
   -11.0563 -11.0294 -10.9535 -10.7939 -10.7754 -10.5186 -10.4841 -10.4407
   -10.4354 -10.1684 -10.1113 -10.0924 -10.0129  -9.9901  -9.9689  -9.8529
    -9.8019  -9.7410  -9.6048  -9.6016  -9.5469  -9.5092  -9.2953  -9.2908
    -9.2515  -9.1702  -9.0147  -8.9902  -8.8532  -8.7736  -8.6759  -8.5449
    -8.4689  -8.3331  -8.3038  -8.2733  -8.2274  -8.1742  -8.0678  -8.0141
    -8.0101  -7.9264  -7.8096  -7.7852  -7.6769  -7.6594  -7.5132  -7.3799
    -7.3487  -7.3024  -7.2180  -7.1928  -7.1644  -7.1472  -7.0244  -6.9084
    -6.9013  -6.8154  -6.8038  -6.7041  -6.6430  -6.6247  -6.5918  -6.5024
    -6.3878  -6.3605  -6.2346  -6.1654  -6.1574  -6.0091  -6.0033  -5.9016
    -5.8818  -5.7647  -5.7338  -5.6051  -5.5999  -5.4647  -5.4306  -5.3107
    -4.0576  -3.9607  -3.9083  -3.8130  -3.7710  -3.7335  -3.6680  -3.6580
    -3.6387  -3.5941  -3.5661  -3.5425  -3.5328  -3.5128  -3.4599  -3.4472
    -3.3865  -3.3638  -3.3471  -3.2923  -3.2019  -3.1273  -3.0796  -3.0448
    -2.9131  -2.8497  -2.7867  -2.5459  -2.2337  -2.2233  -2.1448  -1.9560
    -1.8657  -1.8040  -1.6738  -1.5810  -1.1333  -0.9889  -0.7879  -0.5866
    -0.5317  -0.5198  -0.4279  -0.0287   0.1340   0.3219   0.3532   0.6132
     0.7009   0.9794   0.9892   1.0375   1.0739   1.1259   1.1652   1.2996
     1.5651   1.6958   1.9675   2.0793   2.1028   2.3312

     the Fermi energy is    -2.9125 ev

!    total energy              =   -3440.09705131 Ry
     estimated scf accuracy    <          9.8E-10 Ry
     smearing contrib. (-TS)   =       0.08712593 Ry
     internal energy E=F+TS    =   -3440.18417724 Ry

     The total energy is F=E-TS. E is the sum of the following terms:
     one-electron contribution =  -25522.54442927 Ry
     hartree contribution      =   12758.92581031 Ry
     xc contribution           =    -452.15932003 Ry
     ewald contribution        =    9856.45111934 Ry
     one-center paw contrib.   =    -266.42825642 Ry
     electrostatic embedding   =      -0.03362557 Ry
     cavitation energy         =       0.02134213 Ry
     PV energy                 =      -0.08241210 Ry
     correction to one-el term =     185.66559436 Ry

     WARNING: you are using the parabolic pbc correction;
              the potential shift above must be added to 
              band and Fermi energies.

     convergence has been achieved in  38 iterations

     negative rho (up, down):  1.266E-04 0.000E+00

     Forces acting on atoms (cartesian axes, Ry/au):

     atom    1 type  1   force =     0.08669776    0.20191120   -0.00319504
     atom    2 type  1   force =    -0.00586888    0.01125760   -0.00833892
     atom    3 type  1   force =    -0.00251597    0.05630521    0.08128249
     atom    4 type  1   force =     0.00488760   -0.15895742    0.08199712
     atom    5 type  2   force =     0.01115671   -0.00431402   -0.00748111
     atom    6 type  2   force =    -0.01080870   -0.00222418   -0.00141630
     atom    7 type  1   force =    -0.00006505    0.11196694    0.00720102
     atom    8 type  1   force =    -0.00067203    0.04687987    0.00176811
     atom    9 type  2   force =    -0.02066242    0.00095653   -0.00872132
     atom   10 type  2   force =     0.02179475    0.01018785   -0.00187572
     atom   11 type  1   force =    -0.00001931   -0.10528367   -0.00366977
     atom   12 type  1   force =    -0.00128184   -0.04413377   -0.00741398
     atom   13 type  1   force =     0.00008295   -0.00167186   -0.00589339
     atom   14 type  1   force =     0.00085119   -0.00248806    0.00090038
     atom   15 type  1   force =    -0.00012807   -0.00090845    0.00251352
     atom   16 type  1   force =     0.00025585   -0.00032803    0.01643681
     atom   17 type  2   force =     0.00652756    0.00465516    0.00000000
     atom   18 type  2   force =    -0.00667842    0.00513638    0.00000000
     atom   19 type  1   force =    -0.00347854   -0.06324562    0.00000000
     atom   20 type  1   force =     0.00301460   -0.07735142    0.00000000
     atom   21 type  2   force =    -0.00608603   -0.00505738    0.00000000
     atom   22 type  2   force =     0.00742072   -0.00978540    0.00000000
     atom   23 type  1   force =    -0.00411512    0.06810808    0.00000000
     atom   24 type  1   force =     0.00327329    0.08670274    0.00000000
     atom   25 type  1   force =    -0.00012807   -0.00090845   -0.00251352
     atom   26 type  1   force =     0.00025585   -0.00032803   -0.01643681
     atom   27 type  1   force =     0.00008295   -0.00167186    0.00589339
     atom   28 type  1   force =     0.00085119   -0.00248806   -0.00090038
     atom   29 type  2   force =     0.01115671   -0.00431402    0.00748111
     atom   30 type  2   force =    -0.01080870   -0.00222418    0.00141630
     atom   31 type  1   force =    -0.00006505    0.11196694   -0.00720102
     atom   32 type  1   force =    -0.00067203    0.04687987   -0.00176811
     atom   33 type  2   force =    -0.02066242    0.00095653    0.00872132
     atom   34 type  2   force =     0.02179475    0.01018785    0.00187572
     atom   35 type  1   force =    -0.00001931   -0.10528367    0.00366977
     atom   36 type  1   force =    -0.00128184   -0.04413377    0.00741398
     atom   37 type  1   force =    -0.00251597    0.05630521   -0.08128249
     atom   38 type  1   force =     0.00488760   -0.15895742   -0.08199712
     atom   39 type  1   force =     0.08669776    0.20191120    0.00319504
     atom   40 type  1   force =    -0.00586888    0.01125760    0.00833892
     atom   41 type  3   force =    -0.03596330   -0.00075649    0.00264271
     atom   42 type  3   force =    -0.03596330   -0.00075649   -0.00264271
     atom   43 type  3   force =    -0.00122079    0.00223380   -0.00092905
     atom   44 type  3   force =    -0.00122079    0.00223380    0.00092905
     atom   45 type  3   force =    -0.04263024   -0.19077203   -0.00676804
     atom   46 type  3   force =    -0.04263024   -0.19077203    0.00676804
     atom   47 type  3   force =    -0.00421463    0.13394615   -0.07100562
     atom   48 type  3   force =    -0.00421463    0.13394615    0.07100562
     atom   49 type  3   force =     0.00038538   -0.06838843   -0.06816095
     atom   50 type  3   force =     0.00038538   -0.06838843    0.06816095
     The non-local contrib.  to forces
     atom    1 type  1   force =     1.04885018   -1.44094080    0.31227706
     atom    2 type  1   force =     1.28426252    0.72284438   -0.32003745
     atom    3 type  1   force =     0.01299755   -1.33037984   -0.55809395
     atom    4 type  1   force =    -0.01533395    1.35661115    0.13643450
     atom    5 type  2   force =    -0.00519746    0.00312397    0.05108274
     atom    6 type  2   force =     0.00278182   -0.00029024    0.04743305
     atom    7 type  1   force =    -0.00865422   -0.01209551   -0.12220151
     atom    8 type  1   force =    -0.00026443   -0.13238440   -0.04580948
     atom    9 type  2   force =    -0.01739155    0.01170055    0.00082505
     atom   10 type  2   force =     0.02233379    0.01665701    0.03010847
     atom   11 type  1   force =    -0.01932798    0.00300506    0.07961966
     atom   12 type  1   force =     0.01047278    0.14818010    0.09033031
     atom   13 type  1   force =    -0.00157454    0.05591855   -0.00990612
     atom   14 type  1   force =    -0.00181808    0.02009483   -0.02701311
     atom   15 type  1   force =     0.00747234   -0.05838980   -0.22207785
     atom   16 type  1   force =    -0.00882906   -0.05938444   -0.02553145
     atom   17 type  2   force =    -0.00129720   -0.00050424    0.00000000
     atom   18 type  2   force =    -0.00012693    0.00044532    0.00000000
     atom   19 type  1   force =     0.01252090    0.07764191    0.00000000
     atom   20 type  1   force =    -0.01320742    0.04196541    0.00000000
     atom   21 type  2   force =     0.00795691    0.00157307    0.00000000
     atom   22 type  2   force =    -0.00589909    0.00146094    0.00000000
     atom   23 type  1   force =     0.01948862   -0.09225013    0.00000000
     atom   24 type  1   force =    -0.01633501   -0.06737747    0.00000000
     atom   25 type  1   force =     0.00747234   -0.05838980    0.22207785
     atom   26 type  1   force =    -0.00882906   -0.05938444    0.02553145
     atom   27 type  1   force =    -0.00157454    0.05591855    0.00990612
     atom   28 type  1   force =    -0.00181808    0.02009483    0.02701311
     atom   29 type  2   force =    -0.00519746    0.00312397   -0.05108274
     atom   30 type  2   force =     0.00278182   -0.00029024   -0.04743305
     atom   31 type  1   force =    -0.00865422   -0.01209551    0.12220151
     atom   32 type  1   force =    -0.00026443   -0.13238440    0.04580948
     atom   33 type  2   force =    -0.01739155    0.01170055   -0.00082505
     atom   34 type  2   force =     0.02233379    0.01665701   -0.03010847
     atom   35 type  1   force =    -0.01932798    0.00300506   -0.07961966
     atom   36 type  1   force =     0.01047278    0.14818010   -0.09033031
     atom   37 type  1   force =     0.01299755   -1.33037984    0.55809395
     atom   38 type  1   force =    -0.01533395    1.35661115   -0.13643450
     atom   39 type  1   force =     1.04885018   -1.44094080   -0.31227706
     atom   40 type  1   force =     1.28426252    0.72284438    0.32003745
     atom   41 type  3   force =    -0.07927523   -0.00537846    0.00924400
     atom   42 type  3   force =    -0.07927523   -0.00537846   -0.00924400
     atom   43 type  3   force =    -0.08000892   -0.04059407    0.06287411
     atom   44 type  3   force =    -0.08000892   -0.04059407   -0.06287411
     atom   45 type  3   force =     0.03452750    0.13844838    0.00273767
     atom   46 type  3   force =     0.03452750    0.13844838   -0.00273767
     atom   47 type  3   force =     0.00271271   -0.11601463    0.06102227
     atom   48 type  3   force =     0.00271271   -0.11601463   -0.06102227
     atom   49 type  3   force =    -0.00106182    0.08673479    0.09632621
     atom   50 type  3   force =    -0.00106182    0.08673479   -0.09632621
     The ionic contribution  to forces
     atom    1 type  1   force =    -3.12498706    4.34023999  -93.20132192
     atom    2 type  1   force =    -0.63787164   -0.06702651  -93.61532500
     atom    3 type  1   force =    -0.74896199    0.59309779  -90.75578451
     atom    4 type  1   force =     0.78019534   -4.77304666  -92.10993567
     atom    5 type  2   force =    -0.45277163   -3.01916428 -169.93178761
     atom    6 type  2   force =     0.36347252   -2.50560740 -171.56020304
     atom    7 type  1   force =    -0.17504308    1.47900021  -59.77538038
     atom    8 type  1   force =     0.17922819    1.51831782  -63.61305878
     atom    9 type  2   force =    -3.36943119    2.49938785 -169.42069640
     atom   10 type  2   force =     3.48111851    3.41364661 -171.96834927
     atom   11 type  1   force =     0.10385670   -0.77644657  -67.19279690
     atom   12 type  1   force =    -0.06170255   -0.99414985  -69.46188609
     atom   13 type  1   force =    -0.38412812   -0.64931276  -38.60506334
     atom   14 type  1   force =     0.42041126   -0.66447330  -38.47965237
     atom   15 type  1   force =    -0.40013204    0.40961567  -24.74564554
     atom   16 type  1   force =     0.40760452    0.47898846  -26.12417336
     atom   17 type  2   force =    -0.21705252    0.94366965   -0.00045738
     atom   18 type  2   force =     0.23441839    0.88830602   -0.00045319
     atom   19 type  1   force =    -0.14231969   -0.86089901   -0.00008865
     atom   20 type  1   force =     0.16332572   -0.86951215   -0.00008226
     atom   21 type  2   force =     0.12943513   -0.32708493   -0.00026674
     atom   22 type  2   force =    -0.08311493   -0.57496919   -0.00025161
     atom   23 type  1   force =    -0.18595061    0.96595628   -0.00008627
     atom   24 type  1   force =     0.15374342    1.10611796   -0.00008188
     atom   25 type  1   force =    -0.40012847    0.40961525   24.74542306
     atom   26 type  1   force =     0.40760067    0.47898809   26.12398795
     atom   27 type  1   force =    -0.38412813   -0.64932394   38.60535090
     atom   28 type  1   force =     0.42041074   -0.66448259   38.47994289
     atom   29 type  2   force =    -0.45276179   -3.01914939  169.93207959
     atom   30 type  2   force =     0.36346462   -2.50558913  171.56049144
     atom   31 type  1   force =    -0.17504334    1.47896551   59.77544559
     atom   32 type  1   force =     0.17923027    1.51828687   63.61312636
     atom   33 type  2   force =    -3.36944383    2.49938985  169.42082279
     atom   34 type  2   force =     3.48112397    3.41364887  171.96848394
     atom   35 type  1   force =     0.10385870   -0.77641478   67.19286107
     atom   36 type  1   force =    -0.06170295   -0.99412293   69.46195112
     atom   37 type  1   force =    -0.74896987    0.59331566   90.75572420
     atom   38 type  1   force =     0.78020085   -4.77330923   92.11007136
     atom   39 type  1   force =    -3.12500486    4.34026041   93.20155247
     atom   40 type  1   force =    -0.63796728   -0.06706945   93.61541640
     atom   41 type  3   force =     2.04233716    0.39458346  -15.64913744
     atom   42 type  3   force =     2.04235441    0.39458576   15.64911945
     atom   43 type  3   force =     2.62200061    1.45100203  -16.64034568
     atom   44 type  3   force =     2.62210358    1.45105428   16.64040770
     atom   45 type  3   force =    -1.18542482   -3.46573366  -15.57816577
     atom   46 type  3   force =    -1.18542565   -3.46571956   15.57810968
     atom   47 type  3   force =     0.19732547    2.27366723  -17.00893246
     atom   48 type  3   force =     0.19731998    2.27390594   17.00888396
     atom   49 type  3   force =    -0.08333799   -2.57236423  -17.91649644
     atom   50 type  3   force =    -0.08333467   -2.57264204   17.91665403
     The local contribution  to forces
     atom    1 type  1   force =     2.17967464   -2.68718865   92.87357511
     atom    2 type  1   force =    -0.67635499   -0.64210250   93.93076263
     atom    3 type  1   force =     0.73656066    0.79921553   91.44598702
     atom    4 type  1   force =    -0.76559974    3.24299859   92.01115059
     atom    5 type  2   force =     0.50257115    3.00654580  169.86375863
     atom    6 type  2   force =    -0.40998640    2.49834572  171.50846046
     atom    7 type  1   force =     0.18965346   -1.35308474   59.90213514
     atom    8 type  1   force =    -0.18542411   -1.34012705   63.66309545
     atom    9 type  2   force =     3.37165027   -2.50999280  169.42033922
     atom   10 type  2   force =    -3.49036066   -3.41019056  171.92676809
     atom   11 type  1   force =    -0.07275915    0.66752075   67.10390821
     atom   12 type  1   force =     0.03977149    0.80496087   69.36320685
     atom   13 type  1   force =     0.38625735    0.59221224   38.61167780
     atom   14 type  1   force =    -0.41838693    0.64104026   38.50246313
     atom   15 type  1   force =     0.39295495   -0.35262158   24.96798845
     atom   16 type  1   force =    -0.39902755   -0.42008518   26.16430418
     atom   17 type  2   force =     0.22535339   -0.93873520   -0.00583273
     atom   18 type  2   force =    -0.24149089   -0.88415055   -0.00585183
     atom   19 type  1   force =     0.12730092    0.71955992   -0.00245512
     atom   20 type  1   force =    -0.14807433    0.74920930   -0.00247195
     atom   21 type  2   force =    -0.14128480    0.32083770   -0.00605410
     atom   22 type  2   force =     0.09423161    0.56411683   -0.00609048
     atom   23 type  1   force =     0.16347585   -0.80536247   -0.00246437
     atom   24 type  1   force =    -0.13523758   -0.95134480   -0.00248043
     atom   25 type  1   force =     0.39297121   -0.35264248  -24.96974745
     atom   26 type  1   force =    -0.39904427   -0.42010795  -26.16604989
     atom   27 type  1   force =     0.38625845    0.59220878  -38.61346172
     atom   28 type  1   force =    -0.41838975    0.64104072  -38.50424793
     atom   29 type  2   force =     0.50258018    3.00655906 -169.86985500
     atom   30 type  2   force =    -0.40999427    2.49836200 -171.51451939
     atom   31 type  1   force =     0.18966692   -1.35308691  -59.90458938
     atom   32 type  1   force =    -0.18543785   -1.34013858  -63.66555170
     atom   33 type  2   force =     3.37169510   -2.51005497 -169.42620910
     atom   34 type  2   force =    -3.49040441   -3.41026834 -171.93258806
     atom   35 type  1   force =    -0.07274863    0.66750064  -67.10637887
     atom   36 type  1   force =     0.03976167    0.80495598  -69.36565792
     atom   37 type  1   force =     0.73656889    0.79917534  -91.44970274
     atom   38 type  1   force =    -0.76560496    3.24315399  -92.01498459
     atom   39 type  1   force =     2.17968514   -2.68719858  -92.87528024
     atom   40 type  1   force =    -0.67633939   -0.64210596  -93.93237290
     atom   41 type  3   force =    -1.99581395   -0.38773256   15.64096096
     atom   42 type  3   force =    -1.99581395   -0.38773256  -15.64096096
     atom   43 type  3   force =    -2.56403234   -1.41402665   16.59443670
     atom   44 type  3   force =    -2.56403234   -1.41402665  -16.59443670
     atom   45 type  3   force =     1.11088019    3.14438180   15.57332968
     atom   46 type  3   force =     1.11088019    3.14438180  -15.57332968
     atom   47 type  3   force =    -0.20612563   -2.02986475   16.87231526
     atom   48 type  3   force =    -0.20612563   -2.02986475  -16.87231526
     atom   49 type  3   force =     0.08548969    2.42527850   17.77972058
     atom   50 type  3   force =     0.08548969    2.42527850  -17.77972058
     The core correction contribution to forces
     atom    1 type  1   force =    -0.01082815    0.01146573   -0.00341777
     atom    2 type  1   force =    -0.01284974   -0.00752095    0.00282476
     atom    3 type  1   force =    -0.00009806    0.01288693    0.00400405
     atom    4 type  1   force =     0.00006720   -0.01133133   -0.00291665
     atom    5 type  2   force =     0.00000000    0.00000000    0.00000000
     atom    6 type  2   force =     0.00000000    0.00000000    0.00000000
     atom    7 type  1   force =     0.00008119   -0.00158245    0.00111901
     atom    8 type  1   force =     0.00001073    0.00028682    0.00055384
     atom    9 type  2   force =     0.00000000    0.00000000    0.00000000
     atom   10 type  2   force =     0.00000000    0.00000000    0.00000000
     atom   11 type  1   force =     0.00017456    0.00167976   -0.00059928
     atom   12 type  1   force =    -0.00006528   -0.00043384   -0.00059245
     atom   13 type  1   force =     0.00001308   -0.00058557    0.00026640
     atom   14 type  1   force =     0.00002122   -0.00014714    0.00041092
     atom   15 type  1   force =    -0.00006973    0.00060874    0.00231054
     atom   16 type  1   force =     0.00009105    0.00062960   -0.00005205
     atom   17 type  2   force =     0.00000000    0.00000000    0.00000000
     atom   18 type  2   force =     0.00000000    0.00000000    0.00000000
     atom   19 type  1   force =    -0.00009985    0.00037353   -0.00000217
     atom   20 type  1   force =     0.00009255    0.00087556   -0.00000218
     atom   21 type  2   force =     0.00000000    0.00000000    0.00000000
     atom   22 type  2   force =     0.00000000    0.00000000    0.00000000
     atom   23 type  1   force =    -0.00014934   -0.00025679   -0.00000210
     atom   24 type  1   force =     0.00012501   -0.00068154   -0.00000210
     atom   25 type  1   force =    -0.00006974    0.00060883   -0.00231307
     atom   26 type  1   force =     0.00009104    0.00062970    0.00004976
     atom   27 type  1   force =     0.00001309   -0.00058574   -0.00026861
     atom   28 type  1   force =     0.00002122   -0.00014729   -0.00041319
     atom   29 type  2   force =     0.00000000    0.00000000    0.00000000
     atom   30 type  2   force =     0.00000000    0.00000000    0.00000000
     atom   31 type  1   force =     0.00008122   -0.00158246   -0.00112117
     atom   32 type  1   force =     0.00001068    0.00028693   -0.00055594
     atom   33 type  2   force =     0.00000000    0.00000000    0.00000000
     atom   34 type  2   force =     0.00000000    0.00000000    0.00000000
     atom   35 type  1   force =     0.00017463    0.00167968    0.00059705
     atom   36 type  1   force =    -0.00006529   -0.00043400    0.00059023
     atom   37 type  1   force =    -0.00009804    0.01288873   -0.00400873
     atom   38 type  1   force =     0.00006714   -0.01133281    0.00291297
     atom   39 type  1   force =    -0.01082872    0.01146616    0.00341662
     atom   40 type  1   force =    -0.01285044   -0.00752124   -0.00282742
     atom   41 type  3   force =     0.00000000    0.00000000    0.00000000
     atom   42 type  3   force =     0.00000000    0.00000000    0.00000000
     atom   43 type  3   force =     0.00000000    0.00000000    0.00000000
     atom   44 type  3   force =     0.00000000    0.00000000    0.00000000
     atom   45 type  3   force =     0.00000000    0.00000000    0.00000000
     atom   46 type  3   force =     0.00000000    0.00000000    0.00000000
     atom   47 type  3   force =     0.00000000    0.00000000    0.00000000
     atom   48 type  3   force =     0.00000000    0.00000000    0.00000000
     atom   49 type  3   force =     0.00000000    0.00000000    0.00000000
     atom   50 type  3   force =     0.00000000    0.00000000    0.00000000
     The Hubbard contrib.    to forces
     atom    1 type  1   force =     0.00000000    0.00000000    0.00000000
     atom    2 type  1   force =     0.00000000    0.00000000    0.00000000
     atom    3 type  1   force =     0.00000000    0.00000000    0.00000000
     atom    4 type  1   force =     0.00000000    0.00000000    0.00000000
     atom    5 type  2   force =     0.00000000    0.00000000    0.00000000
     atom    6 type  2   force =     0.00000000    0.00000000    0.00000000
     atom    7 type  1   force =     0.00000000    0.00000000    0.00000000
     atom    8 type  1   force =     0.00000000    0.00000000    0.00000000
     atom    9 type  2   force =     0.00000000    0.00000000    0.00000000
     atom   10 type  2   force =     0.00000000    0.00000000    0.00000000
     atom   11 type  1   force =     0.00000000    0.00000000    0.00000000
     atom   12 type  1   force =     0.00000000    0.00000000    0.00000000
     atom   13 type  1   force =     0.00000000    0.00000000    0.00000000
     atom   14 type  1   force =     0.00000000    0.00000000    0.00000000
     atom   15 type  1   force =     0.00000000    0.00000000    0.00000000
     atom   16 type  1   force =     0.00000000    0.00000000    0.00000000
     atom   17 type  2   force =     0.00000000    0.00000000    0.00000000
     atom   18 type  2   force =     0.00000000    0.00000000    0.00000000
     atom   19 type  1   force =     0.00000000    0.00000000    0.00000000
     atom   20 type  1   force =     0.00000000    0.00000000    0.00000000
     atom   21 type  2   force =     0.00000000    0.00000000    0.00000000
     atom   22 type  2   force =     0.00000000    0.00000000    0.00000000
     atom   23 type  1   force =     0.00000000    0.00000000    0.00000000
     atom   24 type  1   force =     0.00000000    0.00000000    0.00000000
     atom   25 type  1   force =     0.00000000    0.00000000    0.00000000
     atom   26 type  1   force =     0.00000000    0.00000000    0.00000000
     atom   27 type  1   force =     0.00000000    0.00000000    0.00000000
     atom   28 type  1   force =     0.00000000    0.00000000    0.00000000
     atom   29 type  2   force =     0.00000000    0.00000000    0.00000000
     atom   30 type  2   force =     0.00000000    0.00000000    0.00000000
     atom   31 type  1   force =     0.00000000    0.00000000    0.00000000
     atom   32 type  1   force =     0.00000000    0.00000000    0.00000000
     atom   33 type  2   force =     0.00000000    0.00000000    0.00000000
     atom   34 type  2   force =     0.00000000    0.00000000    0.00000000
     atom   35 type  1   force =     0.00000000    0.00000000    0.00000000
     atom   36 type  1   force =     0.00000000    0.00000000    0.00000000
     atom   37 type  1   force =     0.00000000    0.00000000    0.00000000
     atom   38 type  1   force =     0.00000000    0.00000000    0.00000000
     atom   39 type  1   force =     0.00000000    0.00000000    0.00000000
     atom   40 type  1   force =     0.00000000    0.00000000    0.00000000
     atom   41 type  3   force =     0.00000000    0.00000000    0.00000000
     atom   42 type  3   force =     0.00000000    0.00000000    0.00000000
     atom   43 type  3   force =     0.00000000    0.00000000    0.00000000
     atom   44 type  3   force =     0.00000000    0.00000000    0.00000000
     atom   45 type  3   force =     0.00000000    0.00000000    0.00000000
     atom   46 type  3   force =     0.00000000    0.00000000    0.00000000
     atom   47 type  3   force =     0.00000000    0.00000000    0.00000000
     atom   48 type  3   force =     0.00000000    0.00000000    0.00000000
     atom   49 type  3   force =     0.00000000    0.00000000    0.00000000
     atom   50 type  3   force =     0.00000000    0.00000000    0.00000000
     The SCF correction term to forces
     atom    1 type  1   force =     0.00000757    0.00000113   -0.00000494
     atom    2 type  1   force =    -0.00001904   -0.00001089   -0.00000750
     atom    3 type  1   force =     0.00001129   -0.00000553   -0.00000621
     atom    4 type  1   force =    -0.00001184   -0.00000251   -0.00001054
     atom    5 type  2   force =    -0.00002414    0.00000225   -0.00003831
     atom    6 type  2   force =     0.00002412    0.00000220   -0.00002818
     atom    7 type  1   force =    -0.00001429   -0.00001524   -0.00000933
     atom    8 type  1   force =     0.00001476   -0.00000767   -0.00000245
     atom    9 type  2   force =     0.00001612   -0.00000140   -0.00000721
     atom   10 type  2   force =    -0.00002107   -0.00000408   -0.00001019
     atom   11 type  1   force =    -0.00001524    0.00001563   -0.00000859
     atom   12 type  1   force =     0.00001585    0.00000826   -0.00000332
     atom   13 type  1   force =     0.00000829    0.00000022   -0.00001211
     atom   14 type  1   force =    -0.00000824    0.00000077   -0.00001530
     atom   15 type  1   force =    -0.00000183   -0.00000006   -0.00000433
     atom   16 type  1   force =     0.00000188    0.00000008    0.00000454
     atom   17 type  2   force =     0.00000256   -0.00000134    0.00001441
     atom   18 type  2   force =    -0.00000228   -0.00000076    0.00001442
     atom   19 type  1   force =    -0.00001110   -0.00000473    0.00000509
     atom   20 type  1   force =     0.00001105    0.00000243    0.00000527
     atom   21 type  2   force =    -0.00002354    0.00000094    0.00001439
     atom   22 type  2   force =     0.00002383    0.00000065    0.00001487
     atom   23 type  1   force =    -0.00001130    0.00000459    0.00000527
     atom   24 type  1   force =     0.00001127   -0.00000251    0.00000545
     atom   25 type  1   force =    -0.00000203    0.00000015    0.00001179
     atom   26 type  1   force =     0.00000208    0.00000029    0.00000263
     atom   27 type  1   force =     0.00000791   -0.00000009    0.00001566
     atom   28 type  1   force =    -0.00000786    0.00000046    0.00001878
     atom   29 type  2   force =    -0.00002419    0.00000119    0.00003591
     atom   30 type  2   force =     0.00002417    0.00000115    0.00002561
     atom   31 type  1   force =    -0.00001430   -0.00001511    0.00000871
     atom   32 type  1   force =     0.00001477   -0.00000759    0.00000164
     atom   33 type  2   force =     0.00001500   -0.00000033    0.00000473
     atom   34 type  2   force =    -0.00001995   -0.00000302    0.00000724
     atom   35 type  1   force =    -0.00001527    0.00001576    0.00000754
     atom   36 type  1   force =     0.00001587    0.00000847    0.00000210
     atom   37 type  1   force =     0.00001097   -0.00000576    0.00000419
     atom   38 type  1   force =    -0.00001151   -0.00000277    0.00000849
     atom   39 type  1   force =     0.00000743    0.00000127    0.00000321
     atom   40 type  1   force =    -0.00001888   -0.00001072    0.00000580
     atom   41 type  3   force =    -0.00000057   -0.00000036   -0.00000079
     atom   42 type  3   force =    -0.00000058   -0.00000034    0.00000049
     atom   43 type  3   force =    -0.00000006    0.00000024   -0.00000243
     atom   44 type  3   force =    -0.00000005    0.00000025    0.00000209
     atom   45 type  3   force =     0.00000109   -0.00000241   -0.00000036
     atom   46 type  3   force =     0.00000107   -0.00000239    0.00000005
     atom   47 type  3   force =    -0.00000149   -0.00000247   -0.00000102
     atom   48 type  3   force =    -0.00000145   -0.00000247    0.00000071
     atom   49 type  3   force =     0.00000115    0.00000142    0.00000050
     atom   50 type  3   force =     0.00000113    0.00000140   -0.00000084

     Total force =     0.637348     Total SCF correction =     0.000133

     BFGS Geometry Optimization
     Energy error            =      0.0E+00 Ry
     Gradient error          =      2.0E-01 Ry/Bohr

     number of scf cycles    =   1
     number of bfgs steps    =   0

     energy             new  =   -3440.0970513105 Ry

     new trust radius        =       0.2197608760 bohr
     new conv_thr            =       0.0000000010 Ry


ATOMIC_POSITIONS (crystal)
O             0.0475774060        0.4555101845        0.2622563898
O             0.4559998542        0.4324812025        0.2661288942
O            -0.0012192159        0.0187148588        0.2990223312
O             0.4973014147       -0.0013748943        0.3010885994
Ru            0.2492428967       -0.0081862263        0.3584779135
Ru            0.7471280753       -0.0086657463        0.3578159610
O             0.2475688038        0.3020181456        0.3623333644
O             0.7496194764        0.3048680400        0.3582524846
Ru            0.0017551062        0.4907852867        0.3598515166
Ru            0.4951458028        0.4903326959        0.3568717005
O             0.2470579419        0.6819616070        0.3537884873
O             0.7496493705        0.6788899076        0.3512048390
O            -0.0036496044       -0.0116597740        0.4116391878
O             0.4996931186       -0.0093565862        0.4113306347
O            -0.0024150197        0.5058352092        0.4460376572
O             0.4993603541        0.5057562986        0.4440329983
Ru           -0.0023108686        0.0026078243        0.5000010000
Ru            0.4987859776        0.0026226447        0.5000010000
O             0.2483158564        0.1902654701        0.5000010000
O             0.7477133878        0.1912270352        0.5000010000
Ru            0.2511627850        0.5032846909        0.5000010000
Ru            0.7458223143        0.5037008497        0.5000010000
O             0.2491703774        0.8160883794        0.5000010000
O             0.7475449461        0.8161269163        0.5000010000
O            -0.0024150197        0.5058352092        0.5539633428
O             0.4993603541        0.5057562986        0.5559680017
O            -0.0036496044       -0.0116597740        0.5883618122
O             0.4996931186       -0.0093565862        0.5886703653
Ru            0.2492428967       -0.0081862263        0.6415230865
Ru            0.7471280753       -0.0086657463        0.6421850390
O             0.2475688038        0.3020181456        0.6376676356
O             0.7496194764        0.3048680400        0.6417485154
Ru            0.0017551062        0.4907852867        0.6401494834
Ru            0.4951458028        0.4903326959        0.6431292995
O             0.2470579419        0.6819616070        0.6462125127
O             0.7496493705        0.6788899076        0.6487961610
O            -0.0012192159        0.0187148588        0.7009796688
O             0.4973014147       -0.0013748943        0.6989134006
O             0.0475774060        0.4555101845        0.7377446102
O             0.4559998542        0.4324812025        0.7338721058
H             0.1966328993        0.4442300920        0.2572338136
H             0.1966328993        0.4442300920        0.7427661864
H             0.5654928543        0.4925174085        0.2414163269
H             0.5654928543        0.4925174085        0.7585836731
H             0.0059997060        0.2727966733        0.2612772163
H             0.0059997060        0.2727966733        0.7387227837
H             0.4939698067        0.1622799047        0.2784551561
H             0.4939698067        0.1622799047        0.7215448439
H             0.0002565646        0.9015208070        0.2646208156
H             0.0002565646        0.9015208070        0.7353791844



     Writing config-only to output data dir /storage/home/mgm6007/ixd4/Maria/StrainJin_Files/RuO2-110-0-01234/RuO2-110-0-01234.save/
     NEW-OLD atomic charge density approx. for the potential

     Check: negative core charge=   -0.000001

     negative rho (up, down):  1.116E-04 0.000E+00

     add environment contribution to local potential
     Polarization accuracy = 7.1E-12, # of iterations =  43

     total cpu time spent up to now is    12315.7 secs

     per-process dynamical memory:   216.4 Mb

     Self-consistent Calculation

     iteration #  1     ecut=    50.00 Ry     beta= 0.70
     Davidson diagonalization with overlap
     ethr =  1.00E-06,  avg # of iterations = 13.0

     negative rho (up, down):  1.930E-04 0.000E+00

     total cpu time spent up to now is    12653.0 secs

     total energy              =   -3440.14904850 Ry
     estimated scf accuracy    <       0.11576043 Ry
     electrostatic embedding   =      -0.03124190 Ry
     cavitation energy         =       0.02116145 Ry
     PV energy                 =      -0.08270620 Ry
     correction to one-el term =     186.03043272 Ry

     iteration #  2     ecut=    50.00 Ry     beta= 0.70
     Davidson diagonalization with overlap
     ethr =  3.13E-05,  avg # of iterations =  2.0

     negative rho (up, down):  1.814E-04 0.000E+00

     add environment contribution to local potential
     Polarization accuracy = 8.9E-12, # of iterations =  43

     total cpu time spent up to now is    12877.1 secs

     total energy              =   -3440.15030147 Ry
     estimated scf accuracy    <       0.09199572 Ry
     electrostatic embedding   =      -0.03146457 Ry
     cavitation energy         =       0.02119120 Ry
     PV energy                 =      -0.08268528 Ry
     correction to one-el term =     186.03107453 Ry

     iteration #  3     ecut=    50.00 Ry     beta= 0.70
     Davidson diagonalization with overlap
     ethr =  2.49E-05,  avg # of iterations =  1.0

     negative rho (up, down):  9.767E-05 0.000E+00

     add environment contribution to local potential
     Polarization accuracy = 7.3E-12, # of iterations =  43

     total cpu time spent up to now is    13176.3 secs

     total energy              =   -3440.15182945 Ry
     estimated scf accuracy    <       0.02855026 Ry
     electrostatic embedding   =      -0.03236079 Ry
     cavitation energy         =       0.02118230 Ry
     PV energy                 =      -0.08270538 Ry
     correction to one-el term =     185.90902057 Ry

     iteration #  4     ecut=    50.00 Ry     beta= 0.70
     Davidson diagonalization with overlap
     ethr =  7.72E-06,  avg # of iterations =  2.0

     negative rho (up, down):  3.094E-05 0.000E+00

     add environment contribution to local potential
     Polarization accuracy = 6.1E-12, # of iterations =  43

     total cpu time spent up to now is    13473.0 secs

     total energy              =   -3440.15353147 Ry
     estimated scf accuracy    <       0.00963251 Ry
     electrostatic embedding   =      -0.03332173 Ry
     cavitation energy         =       0.02117935 Ry
     PV energy                 =      -0.08272931 Ry
     correction to one-el term =     185.63473102 Ry

     iteration #  5     ecut=    50.00 Ry     beta= 0.70
     Davidson diagonalization with overlap
     ethr =  2.60E-06,  avg # of iterations = 14.0

     negative rho (up, down):  9.064E-06 0.000E+00

     add environment contribution to local potential
     Polarization accuracy = 5.5E-12, # of iterations =  43

     total cpu time spent up to now is    13785.4 secs

     total energy              =   -3440.15420495 Ry
     estimated scf accuracy    <       0.00507131 Ry
     electrostatic embedding   =      -0.03388495 Ry
     cavitation energy         =       0.02117505 Ry
     PV energy                 =      -0.08274422 Ry
     correction to one-el term =     185.38585221 Ry

     iteration #  6     ecut=    50.00 Ry     beta= 0.70
     Davidson diagonalization with overlap
     ethr =  1.37E-06,  avg # of iterations =  2.0

     negative rho (up, down):  7.834E-07 0.000E+00

     add environment contribution to local potential
     Polarization accuracy = 4.3E-12, # of iterations =  43

     total cpu time spent up to now is    14102.9 secs

     total energy              =   -3440.15420166 Ry
     estimated scf accuracy    <       0.00102137 Ry
     electrostatic embedding   =      -0.03425866 Ry
     cavitation energy         =       0.02117346 Ry
     PV energy                 =      -0.08275079 Ry
     correction to one-el term =     185.18141553 Ry

     iteration #  7     ecut=    50.00 Ry     beta= 0.70
     Davidson diagonalization with overlap
     ethr =  2.76E-07,  avg # of iterations = 16.5

     negative rho (up, down):  3.673E-07 0.000E+00

     add environment contribution to local potential
     Polarization accuracy = 4.0E-12, # of iterations =  43

     total cpu time spent up to now is    14426.7 secs

     total energy              =   -3440.15421945 Ry
     estimated scf accuracy    <       0.00068926 Ry
     electrostatic embedding   =      -0.03496108 Ry
     cavitation energy         =       0.02118194 Ry
     PV energy                 =      -0.08274456 Ry
     correction to one-el term =     184.75505769 Ry

     iteration #  8     ecut=    50.00 Ry     beta= 0.70
     Davidson diagonalization with overlap
     ethr =  1.86E-07,  avg # of iterations =  1.0

     negative rho (up, down):  2.426E-07 0.000E+00

     add environment contribution to local potential
     Polarization accuracy = 4.2E-12, # of iterations =  43

     total cpu time spent up to now is    14757.0 secs

     total energy              =   -3440.15423151 Ry
     estimated scf accuracy    <       0.00025993 Ry
     electrostatic embedding   =      -0.03536678 Ry
     cavitation energy         =       0.02119107 Ry
     PV energy                 =      -0.08273439 Ry
     correction to one-el term =     184.51871468 Ry

     iteration #  9     ecut=    50.00 Ry     beta= 0.70
     Davidson diagonalization with overlap
     ethr =  7.03E-08,  avg # of iterations =  1.5

     negative rho (up, down):  1.973E-07 0.000E+00

     add environment contribution to local potential
[...]
     atom   25 type  1   force =     0.15815724   -0.40418314  -25.37956241
     atom   26 type  1   force =    -0.21138265   -0.39151972  -25.91825720
     atom   27 type  1   force =     0.38298381    0.57239469  -38.93289540
     atom   28 type  1   force =    -0.26415812    0.57039001  -38.33568500
     atom   29 type  2   force =     1.49257966    2.17971387 -169.42295765
     atom   30 type  2   force =    -0.88970124    1.83429083 -170.91279189
     atom   31 type  1   force =     0.11562785    0.62627402  -59.44898749
     atom   32 type  1   force =    -0.31866127    0.01907730  -63.02928716
     atom   33 type  2   force =     2.67549449   -1.85987094 -170.45832055
     atom   34 type  2   force =    -3.09084405   -2.76427717 -171.31786211
     atom   35 type  1   force =     0.08151107   -1.21227587  -67.25431685
     atom   36 type  1   force =    -0.17620525   -0.37464292  -70.23763186
     atom   37 type  1   force =     0.55770926    0.67717604  -91.29615335
     atom   38 type  1   force =    -0.55784933    2.51170657  -92.20767279
     atom   39 type  1   force =     2.33288386   -1.83456430  -92.72350444
     atom   40 type  1   force =    -0.62019209   -0.26691789  -93.55125328
     atom   41 type  3   force =    -2.25871526   -0.44158506   15.61548092
     atom   42 type  3   force =    -2.25871526   -0.44158506  -15.61548092
     atom   43 type  3   force =    -2.52014292   -1.45404205   16.54028463
     atom   44 type  3   force =    -2.52014292   -1.45404205  -16.54028463
     atom   45 type  3   force =     0.76784520    2.63116107   15.43479456
     atom   46 type  3   force =     0.76784520    2.63116107  -15.43479456
     atom   47 type  3   force =    -0.18485226   -1.52537100   16.63581343
     atom   48 type  3   force =    -0.18485226   -1.52537100  -16.63581343
     atom   49 type  3   force =     0.08725514    2.31303068   17.43737920
     atom   50 type  3   force =     0.08725514    2.31303068  -17.43737920
     The core correction contribution to forces
     atom    1 type  1   force =    -0.01136547    0.01274770   -0.00431133
     atom    2 type  1   force =    -0.01355389   -0.00697316    0.00251707
     atom    3 type  1   force =    -0.00033540    0.01316531    0.00467521
     atom    4 type  1   force =    -0.00011440   -0.01299131   -0.00250216
     atom    5 type  2   force =     0.00000000    0.00000000    0.00000000
     atom    6 type  2   force =     0.00000000    0.00000000    0.00000000
     atom    7 type  1   force =     0.00038276    0.00040756    0.00151791
     atom    8 type  1   force =     0.00045867    0.00087163    0.00083919
     atom    9 type  2   force =     0.00000000    0.00000000    0.00000000
     atom   10 type  2   force =     0.00000000    0.00000000    0.00000000
     atom   11 type  1   force =     0.00043486   -0.00044175   -0.00084886
     atom   12 type  1   force =     0.00044290   -0.00098017   -0.00115726
     atom   13 type  1   force =    -0.00026392   -0.00071131   -0.00027321
     atom   14 type  1   force =    -0.00015946   -0.00033838    0.00050798
     atom   15 type  1   force =     0.00019872    0.00066023    0.00206479
     atom   16 type  1   force =     0.00004323    0.00060593    0.00040228
     atom   17 type  2   force =     0.00000000    0.00000000    0.00000000
     atom   18 type  2   force =     0.00000000    0.00000000    0.00000000
     atom   19 type  1   force =    -0.00038567   -0.00053821   -0.00000209
     atom   20 type  1   force =    -0.00022095   -0.00046966   -0.00000208
     atom   21 type  2   force =     0.00000000    0.00000000    0.00000000
     atom   22 type  2   force =     0.00000000    0.00000000    0.00000000
     atom   23 type  1   force =    -0.00040354    0.00060966   -0.00000197
     atom   24 type  1   force =    -0.00026202    0.00057587   -0.00000194
     atom   25 type  1   force =     0.00019873    0.00066032   -0.00206743
     atom   26 type  1   force =     0.00004320    0.00060603   -0.00040466
     atom   27 type  1   force =    -0.00026392   -0.00071150    0.00027091
     atom   28 type  1   force =    -0.00015948   -0.00033855   -0.00051028
     atom   29 type  2   force =     0.00000000    0.00000000    0.00000000
     atom   30 type  2   force =     0.00000000    0.00000000    0.00000000
     atom   31 type  1   force =     0.00038277    0.00040759   -0.00151993
     atom   32 type  1   force =     0.00045862    0.00087174   -0.00084126
     atom   33 type  2   force =     0.00000000    0.00000000    0.00000000
     atom   34 type  2   force =     0.00000000    0.00000000    0.00000000
     atom   35 type  1   force =     0.00043490   -0.00044182    0.00084677
     atom   36 type  1   force =     0.00044287   -0.00098027    0.00115513
     atom   37 type  1   force =    -0.00033538    0.01316753   -0.00467973
     atom   38 type  1   force =    -0.00011436   -0.01299312    0.00249842
     atom   39 type  1   force =    -0.01136609    0.01274802    0.00431031
     atom   40 type  1   force =    -0.01355457   -0.00697344   -0.00251977
     atom   41 type  3   force =     0.00000000    0.00000000    0.00000000
     atom   42 type  3   force =     0.00000000    0.00000000    0.00000000
     atom   43 type  3   force =     0.00000000    0.00000000    0.00000000
     atom   44 type  3   force =     0.00000000    0.00000000    0.00000000
     atom   45 type  3   force =     0.00000000    0.00000000    0.00000000
     atom   46 type  3   force =     0.00000000    0.00000000    0.00000000
     atom   47 type  3   force =     0.00000000    0.00000000    0.00000000
     atom   48 type  3   force =     0.00000000    0.00000000    0.00000000
     atom   49 type  3   force =     0.00000000    0.00000000    0.00000000
     atom   50 type  3   force =     0.00000000    0.00000000    0.00000000
     The Hubbard contrib.    to forces
     atom    1 type  1   force =     0.00000000    0.00000000    0.00000000
     atom    2 type  1   force =     0.00000000    0.00000000    0.00000000
     atom    3 type  1   force =     0.00000000    0.00000000    0.00000000
     atom    4 type  1   force =     0.00000000    0.00000000    0.00000000
     atom    5 type  2   force =     0.00000000    0.00000000    0.00000000
     atom    6 type  2   force =     0.00000000    0.00000000    0.00000000
     atom    7 type  1   force =     0.00000000    0.00000000    0.00000000
     atom    8 type  1   force =     0.00000000    0.00000000    0.00000000
     atom    9 type  2   force =     0.00000000    0.00000000    0.00000000
     atom   10 type  2   force =     0.00000000    0.00000000    0.00000000
     atom   11 type  1   force =     0.00000000    0.00000000    0.00000000
     atom   12 type  1   force =     0.00000000    0.00000000    0.00000000
     atom   13 type  1   force =     0.00000000    0.00000000    0.00000000
     atom   14 type  1   force =     0.00000000    0.00000000    0.00000000
     atom   15 type  1   force =     0.00000000    0.00000000    0.00000000
     atom   16 type  1   force =     0.00000000    0.00000000    0.00000000
     atom   17 type  2   force =     0.00000000    0.00000000    0.00000000
     atom   18 type  2   force =     0.00000000    0.00000000    0.00000000
     atom   19 type  1   force =     0.00000000    0.00000000    0.00000000
     atom   20 type  1   force =     0.00000000    0.00000000    0.00000000
     atom   21 type  2   force =     0.00000000    0.00000000    0.00000000
     atom   22 type  2   force =     0.00000000    0.00000000    0.00000000
     atom   23 type  1   force =     0.00000000    0.00000000    0.00000000
     atom   24 type  1   force =     0.00000000    0.00000000    0.00000000
     atom   25 type  1   force =     0.00000000    0.00000000    0.00000000
     atom   26 type  1   force =     0.00000000    0.00000000    0.00000000
     atom   27 type  1   force =     0.00000000    0.00000000    0.00000000
     atom   28 type  1   force =     0.00000000    0.00000000    0.00000000
     atom   29 type  2   force =     0.00000000    0.00000000    0.00000000
     atom   30 type  2   force =     0.00000000    0.00000000    0.00000000
     atom   31 type  1   force =     0.00000000    0.00000000    0.00000000
     atom   32 type  1   force =     0.00000000    0.00000000    0.00000000
     atom   33 type  2   force =     0.00000000    0.00000000    0.00000000
     atom   34 type  2   force =     0.00000000    0.00000000    0.00000000
     atom   35 type  1   force =     0.00000000    0.00000000    0.00000000
     atom   36 type  1   force =     0.00000000    0.00000000    0.00000000
     atom   37 type  1   force =     0.00000000    0.00000000    0.00000000
     atom   38 type  1   force =     0.00000000    0.00000000    0.00000000
     atom   39 type  1   force =     0.00000000    0.00000000    0.00000000
     atom   40 type  1   force =     0.00000000    0.00000000    0.00000000
     atom   41 type  3   force =     0.00000000    0.00000000    0.00000000
     atom   42 type  3   force =     0.00000000    0.00000000    0.00000000
     atom   43 type  3   force =     0.00000000    0.00000000    0.00000000
     atom   44 type  3   force =     0.00000000    0.00000000    0.00000000
     atom   45 type  3   force =     0.00000000    0.00000000    0.00000000
     atom   46 type  3   force =     0.00000000    0.00000000    0.00000000
     atom   47 type  3   force =     0.00000000    0.00000000    0.00000000
     atom   48 type  3   force =     0.00000000    0.00000000    0.00000000
     atom   49 type  3   force =     0.00000000    0.00000000    0.00000000
     atom   50 type  3   force =     0.00000000    0.00000000    0.00000000
     The SCF correction term to forces
     atom    1 type  1   force =     0.00000009    0.00000062   -0.00000028
     atom    2 type  1   force =    -0.00000072    0.00000042   -0.00000091
     atom    3 type  1   force =     0.00000089   -0.00000167   -0.00000075
     atom    4 type  1   force =    -0.00000067   -0.00000110   -0.00000094
     atom    5 type  2   force =    -0.00000119   -0.00000102   -0.00000081
     atom    6 type  2   force =     0.00000107   -0.00000139   -0.00000007
     atom    7 type  1   force =    -0.00000049   -0.00000036    0.00000007
     atom    8 type  1   force =     0.00000054    0.00000062    0.00000043
     atom    9 type  2   force =     0.00000029    0.00000148   -0.00000032
     atom   10 type  2   force =    -0.00000027    0.00000089    0.00000024
     atom   11 type  1   force =    -0.00000075    0.00000071   -0.00000058
     atom   12 type  1   force =     0.00000100   -0.00000008   -0.00000024
     atom   13 type  1   force =     0.00000056   -0.00000024    0.00000025
     atom   14 type  1   force =    -0.00000049   -0.00000005    0.00000145
     atom   15 type  1   force =    -0.00000053    0.00000024   -0.00000020
     atom   16 type  1   force =     0.00000103    0.00000009    0.00000072
     atom   17 type  2   force =    -0.00000039    0.00000047    0.00000000
     atom   18 type  2   force =     0.00000047    0.00000056    0.00000000
     atom   19 type  1   force =     0.00000069   -0.00000128    0.00000000
     atom   20 type  1   force =    -0.00000065   -0.00000012    0.00000000
     atom   21 type  2   force =     0.00000026   -0.00000021    0.00000000
     atom   22 type  2   force =    -0.00000082   -0.00000029    0.00000000
     atom   23 type  1   force =     0.00000061    0.00000134    0.00000000
     atom   24 type  1   force =    -0.00000061    0.00000020    0.00000000
     atom   25 type  1   force =    -0.00000053    0.00000024    0.00000020
     atom   26 type  1   force =     0.00000103    0.00000009   -0.00000072
     atom   27 type  1   force =     0.00000056   -0.00000024   -0.00000025
     atom   28 type  1   force =    -0.00000049   -0.00000005   -0.00000145
     atom   29 type  2   force =    -0.00000119   -0.00000102    0.00000081
     atom   30 type  2   force =     0.00000107   -0.00000139    0.00000007
     atom   31 type  1   force =    -0.00000049   -0.00000036   -0.00000007
     atom   32 type  1   force =     0.00000054    0.00000062   -0.00000043
     atom   33 type  2   force =     0.00000029    0.00000148    0.00000033
     atom   34 type  2   force =    -0.00000027    0.00000089   -0.00000023
     atom   35 type  1   force =    -0.00000075    0.00000071    0.00000058
     atom   36 type  1   force =     0.00000100   -0.00000008    0.00000024
     atom   37 type  1   force =     0.00000089   -0.00000167    0.00000076
     atom   38 type  1   force =    -0.00000068   -0.00000110    0.00000094
     atom   39 type  1   force =     0.00000009    0.00000062    0.00000027
     atom   40 type  1   force =    -0.00000072    0.00000042    0.00000091
     atom   41 type  3   force =     0.00000004    0.00000008   -0.00000009
     atom   42 type  3   force =     0.00000004    0.00000008    0.00000009
     atom   43 type  3   force =     0.00000000    0.00000009   -0.00000020
     atom   44 type  3   force =     0.00000000    0.00000009    0.00000020
     atom   45 type  3   force =     0.00000002   -0.00000008   -0.00000012
     atom   46 type  3   force =     0.00000002   -0.00000007    0.00000011
     atom   47 type  3   force =    -0.00000006   -0.00000009   -0.00000018
     atom   48 type  3   force =    -0.00000006   -0.00000009    0.00000018
     atom   49 type  3   force =     0.00000006   -0.00000003   -0.00000002
     atom   50 type  3   force =     0.00000006   -0.00000003    0.00000002

     Total force =     0.000402     Total SCF correction =     0.000008
     Energy error            =      1.0E-07 Ry
     Gradient error          =      9.9E-05 Ry/Bohr

     bfgs converged in  54 scf cycles and  53 bfgs steps
     (criteria: energy <  1.0E-04 Ry, force <  1.0E-04 Ry/Bohr)

     End of BFGS Geometry Optimization

     Final energy             =   -3440.2238905628 Ry

     File /storage/home/mgm6007/ixd4/Maria/StrainJin_Files/RuO2-110-0-01234/RuO2-110-0-01234.bfgs deleted, as requested
Begin final coordinates

ATOMIC_POSITIONS (crystal)
O             0.0442760643        0.4361788104        0.2607874407
O             0.4623629503        0.4315443868        0.2652471715
O            -0.0058089762        0.0093878387        0.2981641585
O             0.4917012339        0.0043904591        0.3002854510
Ru            0.2450679399       -0.0075459304        0.3590308542
Ru            0.7402422482       -0.0089735586        0.3581498620
O             0.2530062671        0.3060692353        0.3628349963
O             0.7519720217        0.3057438831        0.3590118854
Ru            0.0033396171        0.4907258631        0.3587045918
Ru            0.5001625025        0.4928337557        0.3569788763
O             0.2511880478        0.6796684769        0.3532263552
O             0.7552546368        0.6783046523        0.3496528619
O            -0.0072200011       -0.0102693202        0.4110625337
O             0.4950656194       -0.0083754276        0.4111490866
O            -0.0016152149        0.5101624865        0.4458284346
O             0.5021130507        0.5110375077        0.4452412876
Ru           -0.0053250341        0.0082196831        0.5000010000
Ru            0.4949359694        0.0080252713        0.5000010000
O             0.2441459640        0.1948332041        0.5000010000
O             0.7442819382        0.1950420248        0.5000010000
Ru            0.2525325436        0.5092092432        0.5000010000
Ru            0.7499681844        0.5095343306        0.5000010000
O             0.2443482770        0.8228323059        0.5000010000
O             0.7446519578        0.8230519097        0.5000010000
O            -0.0016152149        0.5101624865        0.5541725654
O             0.5021130507        0.5110375077        0.5547597124
O            -0.0072200011       -0.0102693202        0.5889384663
O             0.4950656194       -0.0083754276        0.5888519134
Ru            0.2450679399       -0.0075459304        0.6409701458
Ru            0.7402422482       -0.0089735586        0.6418511380
O             0.2530062671        0.3060692353        0.6371660037
O             0.7519720217        0.3057438831        0.6409891146
Ru            0.0033396171        0.4907258631        0.6412964082
Ru            0.5001625025        0.4928337557        0.6430221237
O             0.2511880478        0.6796684769        0.6467746448
O             0.7552546368        0.6783046523        0.6503481381
O            -0.0058089762        0.0093878387        0.7018378415
O             0.4917012339        0.0043904591        0.6997165490
O             0.0442760643        0.4361788104        0.7392135593
O             0.4623629503        0.4315443868        0.7347538285
H             0.1972220983        0.4471745738        0.2558239580
H             0.1972220983        0.4471745738        0.7441760420
H             0.5706637997        0.4959578368        0.2406812465
H             0.5706637997        0.4959578368        0.7593187535
H             0.0172984353        0.2704717162        0.2620528700
H             0.0172984353        0.2704717162        0.7379471300
H             0.4896500984        0.1541238344        0.2789206976
H             0.4896500984        0.1541238344        0.7210793024
H            -0.0054423395        0.8902319337        0.2679077145
H            -0.0054423395        0.8902319337        0.7320922855
End final coordinates



     Writing all to output data dir /storage/home/mgm6007/ixd4/Maria/StrainJin_Files/RuO2-110-0-01234/RuO2-110-0-01234.save/
 
     init_run     :    397.76s CPU    985.90s WALL (       1 calls)
     electrons    :  86782.52s CPU 155974.46s WALL (      54 calls)
     update_pot   :     89.70s CPU     89.82s WALL (      53 calls)
     forces       :     96.42s CPU     97.17s WALL (      54 calls)

     Called by init_run:
     wfcinit      :      1.00s CPU      1.00s WALL (       1 calls)
     potinit      :    251.95s CPU    681.26s WALL (       1 calls)
     hinit0       :    144.34s CPU    303.12s WALL (       1 calls)

     Called by electrons:
     c_bands      :   2459.77s CPU   2462.31s WALL (    1027 calls)
     sum_band     :    458.08s CPU    458.88s WALL (    1027 calls)
     v_of_rho     :    120.33s CPU    120.72s WALL (    1032 calls)
     newd         :     74.17s CPU     74.22s WALL (    1032 calls)
     PAW_pot      :    125.93s CPU    126.06s WALL (    1085 calls)
     mix_rho      :    743.27s CPU    744.22s WALL (    1027 calls)

     Called by c_bands:
     init_us_2    :     31.03s CPU     31.12s WALL (    4324 calls)
     init_us_2:cp :     31.00s CPU     31.10s WALL (    4324 calls)
     cegterg      :   2351.50s CPU   2353.70s WALL (    2054 calls)

     Called by *egterg:
     cdiaghg      :    286.49s CPU    286.72s WALL (    5313 calls)
     h_psi        :   1245.94s CPU   1247.10s WALL (    5519 calls)
     s_psi        :    189.10s CPU    189.27s WALL (    5519 calls)
     g_psi        :      5.95s CPU      5.96s WALL (    3463 calls)

     Called by h_psi:
     h_psi:calbec :    190.63s CPU    190.80s WALL (    5519 calls)
     vloc_psi     :    850.96s CPU    851.80s WALL (    5519 calls)
     add_vuspsi   :    188.97s CPU    189.11s WALL (    5519 calls)

     General routines
     calbec       :    302.46s CPU    302.75s WALL (    8111 calls)
     fft          :  18746.59s CPU  18751.25s WALL (   14004 calls)
     ffts         :    272.88s CPU    273.10s WALL (  431451 calls)
     fftw         :    772.33s CPU    772.87s WALL ( 2381920 calls)
     interpolate  :  18666.25s CPU  18670.88s WALL (    1032 calls)
 
     Parallel routines
 
     Environ routines
 
     PWSCF        :   1d 1h31m CPU   1d22h 0m WALL

 
   This run was terminated on:   9:23:30  28Jul2023            

=------------------------------------------------------------------------------=
   JOB DONE.
=------------------------------------------------------------------------------=
