
     Program PWSCF v.7.2 starts on 19Jul2023 at 11:38:17 
        Git branch: heads/qe-7.2
        Last git commit: b4c5e8deeb7d1863e7553a87b45f8d22c21926a5
        Last git commit date: Mon Mar 27 16:12:09 2023 +0000
        Last git commit subject: Merge branch 'merge_fix_hubbard' into 'develop'

     This program is part of the open-source Quantum ESPRESSO suite
     for quantum simulation of materials; please cite
         "P. Giannozzi et al., J. Phys.:Condens. Matter 21 395502 (2009);
         "P. Giannozzi et al., J. Phys.:Condens. Matter 29 465901 (2017);
         "P. Giannozzi et al., J. Chem. Phys. 152 154105 (2020);
          URL http://www.quantum-espresso.org", 
     in publications or presentations arising from this work. More details at
     http://www.quantum-espresso.org/quote

     Parallel version (MPI), running on    20 processors

     MPI processes distributed on     1 nodes
     101736 MiB available memory on the printing compute node when the environment starts
 
     Reading input from RuO2-110-0-23.in

     Current dimensions of program PWSCF are:
     Max number of different atomic species (ntypx) = 10
     Max number of k-points (npk) =  40000
     Max angular momentum in pseudopotentials (lmaxx) =  4
 
     Reading input from environ.in:
     * Environ restarting
     * setting up water environment
     * using electronic solvent mode
     * setting boundary derivatives method to SCCS default
     
     file O.pbe-n-kjpaw_psl.0.1.UPF: wavefunction(s)  2P renormalized
     Message from routine setup:
     using ibrav=0 with symmetry is DISCOURAGED, use correct ibrav instead
 
     R & G space division:  proc/nbgrp/npool/nimage =      20
     Subspace diagonalization in iterative solution of the eigenvalue problem:
     one sub-group per band group will be used
     scalapack distributed-memory algorithm (size of sub-group:  2*  2 procs)

 
     Parallelization info
     --------------------
     sticks:   dense  smooth     PW     G-vecs:    dense   smooth      PW
     Min         282     113     29                56190    14217    1913
     Max         283     114     30                56201    14227    1932
     Sum        5657    2263    593              1123933   284439   38425
 
     Using Slab Decomposition
 


     bravais-lattice index     =            0
     lattice parameter (alat)  =      12.1041  a.u.
     unit-cell volume          =    5954.5483 (a.u.)^3
     number of atoms/cell      =           44
     number of atomic types    =            3
     number of electrons       =       364.00
     number of Kohn-Sham states=          218
     kinetic-energy cutoff     =      50.0000  Ry
     charge density cutoff     =     500.0000  Ry
     scf convergence threshold =      1.0E-09
     mixing beta               =       0.7000
     number of iterations used =            8  local-TF  mixing
     energy convergence thresh.=      1.0E-04
     force convergence thresh. =      1.0E-04
     Exchange-correlation= PBE
                           (   1   4   3   4   0   0   0)
     nstep                     =          200


     ================================================================================
 
                                  Environ Setup Summary

     ================================================================================
 
     Please cite

          O. Andreussi, I. Dabo and N. Marzari, J. Chem. Phys. 136, 064102 (2012)

     in publications or presentations arising from this work.

     ================================================================================
 
     Parameters
     ==========

     compensation onset threshold      =               0.1000E+00
     static permittivity               =                    78.30
     surface tension in input (dyn/cm) =                    47.90
     surface tension in internal units =               0.6153E-04
     external pressure in input (GPa)  =                    -0.36
     external pressure in inter. units =              -0.2447E-04

     Solvent Boundary
     ================

     solvent mode                      =               electronic
     derivatives method                =                    chain
     numerical core for derivatives    =                      fft
     switching function adopted        =                     SCCS
     density limit for vacuum region   =               0.5000E-02
     density limit for bulk solvent    =               0.1000E-03

     Electrostatic Setup
     ===================

     electrostatic problem to solve    =              generalized
     numerical solver adopted          =                       cg
     type of auxiliary density adopted =                     none
     numerical core for poisson        =                      fft
     type of pbc corrections           =                parabolic
     numerical core for corrections    =                      1da

     ================================================================================
 

     celldm(1)=  12.104053  celldm(2)=   0.000000  celldm(3)=   0.000000
     celldm(4)=   0.000000  celldm(5)=   0.000000  celldm(6)=   0.000000

     crystal axes: (cart. coord. in units of alat)
               a(1) = (   1.000000   0.000000   0.000000 )  
               a(2) = (   0.000000   0.971735   0.000000 )  
               a(3) = (   0.000000   0.000000   3.455479 )  

     reciprocal axes: (cart. coord. in units 2 pi/alat)
               b(1) = (  1.000000  0.000000  0.000000 )  
               b(2) = (  0.000000  1.029087  0.000000 )  
               b(3) = (  0.000000  0.000000  0.289395 )  


     PseudoPot. # 1 for O  read from file:
     /gpfs/group/ixd4/default/Simon/pseudopotentials/materialscloud/SSSP_1.3.0_PBE_efficiency/O.pbe-n-kjpaw_psl.0.1.UPF
     MD5 check sum: 0234752ac141de4415c5fc33072bef88
     Pseudo is Projector augmented-wave + core cor, Zval =  6.0
     Generated using "atomic" code by A. Dal Corso  v.5.0.99 svn rev. 10869
     Shape of augmentation charge: BESSEL
     Using radial grid of 1095 points,  4 beta functions with: 
                l(1) =   0
                l(2) =   0
                l(3) =   1
                l(4) =   1
     Q(r) pseudized with 0 coefficients 


     PseudoPot. # 2 for Ru read from file:
     /gpfs/group/ixd4/default/Simon/pseudopotentials/materialscloud/SSSP_1.3.0_PBE_efficiency/Ru_ONCV_PBE-1.0.oncvpsp.upf
     MD5 check sum: be037bb81c227cfb9b1461a9f099f4bd
     Pseudo is Norm-conserving, Zval = 16.0
     Generated using ONCVPSP code by D. R. Hamann
     Using radial grid of 1458 points,  6 beta functions with: 
                l(1) =   0
                l(2) =   0
                l(3) =   1
                l(4) =   1
                l(5) =   2
                l(6) =   2

     PseudoPot. # 3 for H  read from file:
     /gpfs/group/ixd4/default/Simon/pseudopotentials/materialscloud/SSSP_1.3.0_PBE_efficiency/H.pbe-rrkjus_psl.1.0.0.UPF
     MD5 check sum: f52b6d4d1c606e5624b1dc7b2218f220
     Pseudo is Ultrasoft, Zval =  1.0
     Generated using "atomic" code by A. Dal Corso  v.5.1
     Using radial grid of  929 points,  2 beta functions with: 
                l(1) =   0
                l(2) =   0
     Q(r) pseudized with 0 coefficients 


     atomic species   valence    mass     pseudopotential
        O              6.00    15.99940     O ( 1.00)
        Ru            16.00   101.07000     Ru( 1.00)
        H              1.00     1.00794     H ( 1.00)

      4 Sym. Ops. (no inversion) found



   Cartesian axes

     site n.     atom                  positions (alat units)
         1           O   tau(   1) = (   0.0000000   0.4911775   0.9454789  )
         2           O   tau(   2) = (   0.5000000   0.4912239   0.9498093  )
         3           O   tau(   3) = (   0.0000000   0.0063677   1.0495288  )
         4           O   tau(   4) = (   0.5000000   0.0063970   1.0496807  )
         5           Ru  tau(   5) = (   0.2500109   0.0069021   1.2408374  )
         6           Ru  tau(   6) = (   0.7499891   0.0069021   1.2408374  )
         7           O   tau(   7) = (   0.2504094   0.3029755   1.2388874  )
         8           O   tau(   8) = (   0.7495906   0.3029755   1.2388874  )
         9           Ru  tau(   9) = (   0.0000000   0.4928805   1.2144276  )
        10           Ru  tau(  10) = (   0.5000000   0.4928653   1.2185152  )
        11           O   tau(  11) = (   0.2504024   0.6824930   1.2379135  )
        12           O   tau(  12) = (   0.7495976   0.6824930   1.2379135  )
        13           O   tau(  13) = (   0.0000000   0.0061351   1.4225291  )
        14           O   tau(  14) = (   0.5000000   0.0060951   1.4227385  )
        15           O   tau(  15) = (   0.0000000   0.4937373   1.5265800  )
        16           O   tau(  16) = (   0.5000000   0.4937173   1.5407731  )
        17           Ru  tau(  17) = (   0.0000000   0.0079874   1.7277432  )
        18           Ru  tau(  18) = (   0.5000000   0.0080029   1.7277432  )
        19           O   tau(  19) = (   0.2488128   0.1963317   1.7277432  )
        20           O   tau(  20) = (   0.7511872   0.1963317   1.7277432  )
        21           Ru  tau(  21) = (   0.2458419   0.4938002   1.7277432  )
        22           Ru  tau(  22) = (   0.7541581   0.4938002   1.7277432  )
        23           O   tau(  23) = (   0.2487606   0.7910827   1.7277432  )
        24           O   tau(  24) = (   0.7512394   0.7910827   1.7277432  )
        25           O   tau(  25) = (   0.0000000   0.4937373   1.9289029  )
        26           O   tau(  26) = (   0.5000000   0.4937173   1.9147099  )
        27           O   tau(  27) = (   0.0000000   0.0061351   2.0329539  )
        28           O   tau(  28) = (   0.5000000   0.0060951   2.0327444  )
        29           Ru  tau(  29) = (   0.2500109   0.0069021   2.2146455  )
        30           Ru  tau(  30) = (   0.7499891   0.0069021   2.2146455  )
        31           O   tau(  31) = (   0.2504094   0.3029755   2.2165955  )
        32           O   tau(  32) = (   0.7495906   0.3029755   2.2165955  )
        33           Ru  tau(  33) = (   0.0000000   0.4928805   2.2410554  )
        34           Ru  tau(  34) = (   0.5000000   0.4928653   2.2369678  )
        35           O   tau(  35) = (   0.2504024   0.6824930   2.2175694  )
        36           O   tau(  36) = (   0.7495976   0.6824930   2.2175694  )
        37           O   tau(  37) = (   0.0000000   0.0063677   2.4059576  )
        38           O   tau(  38) = (   0.5000000   0.0063970   2.4058057  )
        39           O   tau(  39) = (   0.0000000   0.4911775   2.5100040  )
        40           O   tau(  40) = (   0.5000000   0.4912239   2.5056737  )
        41           H   tau(  41) = (   0.0000000   0.0418971   0.9019998  )
        42           H   tau(  42) = (   0.0000000   0.0418971   2.5534797  )
        43           H   tau(  43) = (   0.5000000   0.0418117   0.9021246  )
        44           H   tau(  44) = (   0.5000000   0.0418117   2.5533548  )

     number of k points=     1  Marzari-Vanderbilt smearing, width (Ry)=  0.0300
                       cart. coord. in units 2pi/alat
        k(    1) = (   0.2500000   0.2572717   0.0000000), wk =   2.0000000

     Dense  grid:  1123933 G-vectors     FFT dimensions: (  90,  90, 300)

     Smooth grid:   284439 G-vectors     FFT dimensions: (  60,  54, 192)

     Estimated max dynamical RAM per process >     172.76 MB

     Estimated total dynamical RAM >       3.37 GB

     Check: negative core charge=   -0.000001

     Initial potential from superposition of free atoms

     starting charge     363.9933, renormalised to     364.0000

     add environment contribution to local potential
     Polarization accuracy = 2.3E-12, # of iterations =  24

     negative rho (up, down):  3.416E-05 0.000E+00
     Starting wfcs are  236 randomized atomic wfcs
     Checking if some PAW data can be deallocated... 

     total cpu time spent up to now is     1115.3 secs

     per-process dynamical memory:   144.7 Mb

     Self-consistent Calculation

     iteration #  1     ecut=    50.00 Ry     beta= 0.70
     Davidson diagonalization with overlap
     ethr =  1.00E-02,  avg # of iterations =  2.0

     total cpu time spent up to now is     1447.2 secs

     total energy              =   -3430.24015919 Ry
     estimated scf accuracy    <      10.27838606 Ry
     electrostatic embedding   =      -0.00179748 Ry
     cavitation energy         =       0.02026877 Ry
     PV energy                 =      -0.08519864 Ry
     correction to one-el term =     213.14594762 Ry

     iteration #  2     ecut=    50.00 Ry     beta= 0.70
     Davidson diagonalization with overlap
     ethr =  2.82E-03,  avg # of iterations =  2.0

     total cpu time spent up to now is     1755.5 secs

     total energy              =   -3432.45395050 Ry
     estimated scf accuracy    <       3.19795133 Ry
     electrostatic embedding   =      -0.00283502 Ry
     cavitation energy         =       0.02027040 Ry
     PV energy                 =      -0.08576932 Ry
     correction to one-el term =     213.14889106 Ry

     iteration #  3     ecut=    50.00 Ry     beta= 0.70
     Davidson diagonalization with overlap
     ethr =  8.79E-04,  avg # of iterations =  1.0

     total cpu time spent up to now is     2097.5 secs

     total energy              =   -3432.67070183 Ry
     estimated scf accuracy    <       1.27298022 Ry
     electrostatic embedding   =      -0.00335236 Ry
     cavitation energy         =       0.02022825 Ry
     PV energy                 =      -0.08624030 Ry
     correction to one-el term =     213.15048401 Ry

     iteration #  4     ecut=    50.00 Ry     beta= 0.70
     Davidson diagonalization with overlap
     ethr =  3.50E-04,  avg # of iterations =  1.0

     total cpu time spent up to now is     2415.0 secs

     total energy              =   -3432.75171978 Ry
     estimated scf accuracy    <       0.71552468 Ry
     electrostatic embedding   =      -0.00346849 Ry
     cavitation energy         =       0.02043810 Ry
     PV energy                 =      -0.08581332 Ry
     correction to one-el term =     213.15043338 Ry

     iteration #  5     ecut=    50.00 Ry     beta= 0.70
     Davidson diagonalization with overlap
     ethr =  1.97E-04,  avg # of iterations =  1.0

     total cpu time spent up to now is     2721.5 secs

     total energy              =   -3432.74100347 Ry
     estimated scf accuracy    <       0.43606883 Ry
     electrostatic embedding   =      -0.00371848 Ry
     cavitation energy         =       0.02075159 Ry
     PV energy                 =      -0.08527043 Ry
     correction to one-el term =     213.15069073 Ry

     iteration #  6     ecut=    50.00 Ry     beta= 0.70
     Davidson diagonalization with overlap
     ethr =  1.20E-04,  avg # of iterations =  1.0

     total cpu time spent up to now is     3018.2 secs

     total energy              =   -3432.73457258 Ry
     estimated scf accuracy    <       0.24024354 Ry
     electrostatic embedding   =      -0.00389963 Ry
     cavitation energy         =       0.02122787 Ry
     PV energy                 =      -0.08423389 Ry
     correction to one-el term =     213.15060475 Ry

     iteration #  7     ecut=    50.00 Ry     beta= 0.70
     Davidson diagonalization with overlap
     ethr =  6.60E-05,  avg # of iterations =  3.0

     total cpu time spent up to now is     3311.3 secs

     total energy              =   -3432.73050917 Ry
     estimated scf accuracy    <       0.16117779 Ry
     electrostatic embedding   =      -0.00387961 Ry
     cavitation energy         =       0.02164427 Ry
     PV energy                 =      -0.08313857 Ry
     correction to one-el term =     213.15005547 Ry

     iteration #  8     ecut=    50.00 Ry     beta= 0.70
     Davidson diagonalization with overlap
     ethr =  4.43E-05,  avg # of iterations =  7.0

     add environment contribution to local potential
     Polarization accuracy = 8.9E-12, # of iterations =  44

     total cpu time spent up to now is     3595.0 secs

     total energy              =   -3432.72462127 Ry
     estimated scf accuracy    <       0.07761846 Ry
     electrostatic embedding   =      -0.00369351 Ry
     cavitation energy         =       0.02210406 Ry
     PV energy                 =      -0.08186759 Ry
     correction to one-el term =     213.14900072 Ry

     iteration #  9     ecut=    50.00 Ry     beta= 0.70
     Davidson diagonalization with overlap
     ethr =  2.13E-05,  avg # of iterations = 10.0

     negative rho (up, down):  2.645E-05 0.000E+00

     total cpu time spent up to now is     3931.7 secs

     total energy              =   -3432.79073437 Ry
     estimated scf accuracy    <       0.47441207 Ry
     electrostatic embedding   =      -0.06311007 Ry
     cavitation energy         =       0.02249986 Ry
     PV energy                 =      -0.08097547 Ry
     correction to one-el term =     175.08927501 Ry

     iteration # 10     ecut=    50.00 Ry     beta= 0.70
     Davidson diagonalization with overlap
     ethr =  2.13E-05,  avg # of iterations =  1.0

     total cpu time spent up to now is     4301.1 secs

     total energy              =   -3432.77695138 Ry
     estimated scf accuracy    <       0.24638047 Ry
     electrostatic embedding   =      -0.06402055 Ry
     cavitation energy         =       0.02256523 Ry
     PV energy                 =      -0.08066474 Ry
     correction to one-el term =     175.09248143 Ry

     iteration # 11     ecut=    50.00 Ry     beta= 0.70
     Davidson diagonalization with overlap
     ethr =  2.13E-05,  avg # of iterations =  1.0

     add environment contribution to local potential
     Polarization accuracy = 9.9E-12, # of iterations =  44

     total cpu time spent up to now is     4627.1 secs

     total energy              =   -3432.77283079 Ry
     estimated scf accuracy    <       0.06399394 Ry
     electrostatic embedding   =      -0.06526685 Ry
     cavitation energy         =       0.02233930 Ry
     PV energy                 =      -0.08071999 Ry
     correction to one-el term =     175.09604086 Ry

     iteration # 12     ecut=    50.00 Ry     beta= 0.70
     Davidson diagonalization with overlap
     ethr =  1.76E-05,  avg # of iterations =  2.0

     negative rho (up, down):  4.336E-03 0.000E+00

     add environment contribution to local potential
     Polarization accuracy = 3.9E-12, # of iterations =  46

     total cpu time spent up to now is     4943.0 secs

     total energy              =   -3432.78030286 Ry
     estimated scf accuracy    <       0.02561651 Ry
     electrostatic embedding   =      -0.07483657 Ry
     cavitation energy         =       0.02215288 Ry
     PV energy                 =      -0.08073569 Ry
     correction to one-el term =     176.43184140 Ry

     iteration # 13     ecut=    50.00 Ry     beta= 0.70
     Davidson diagonalization with overlap
     ethr =  7.04E-06,  avg # of iterations = 11.0

     negative rho (up, down):  5.914E-03 0.000E+00

     add environment contribution to local potential
     Polarization accuracy = 4.9E-12, # of iterations =  46

     total cpu time spent up to now is     5244.6 secs

     total energy              =   -3432.78590397 Ry
     estimated scf accuracy    <       0.00863228 Ry
     electrostatic embedding   =      -0.08886824 Ry
     cavitation energy         =       0.02194114 Ry
     PV energy                 =      -0.08059438 Ry
     correction to one-el term =     177.25630145 Ry

     iteration # 14     ecut=    50.00 Ry     beta= 0.70
     Davidson diagonalization with overlap
     ethr =  2.37E-06,  avg # of iterations =  9.0

     negative rho (up, down):  1.430E-03 0.000E+00

     add environment contribution to local potential
     Polarization accuracy = 5.4E-12, # of iterations =  44

     total cpu time spent up to now is     5525.5 secs

     total energy              =   -3432.78681917 Ry
     estimated scf accuracy    <       0.00565145 Ry
     electrostatic embedding   =      -0.09360356 Ry
     cavitation energy         =       0.02189879 Ry
     PV energy                 =      -0.08057051 Ry
     correction to one-el term =     177.34499785 Ry

     iteration # 15     ecut=    50.00 Ry     beta= 0.70
     Davidson diagonalization with overlap
     ethr =  1.55E-06,  avg # of iterations =  6.0

     negative rho (up, down):  8.092E-04 0.000E+00

     add environment contribution to local potential
     Polarization accuracy = 5.4E-12, # of iterations =  43

     total cpu time spent up to now is     5841.3 secs

     total energy              =   -3432.78735318 Ry
     estimated scf accuracy    <       0.00743760 Ry
     electrostatic embedding   =      -0.09733951 Ry
     cavitation energy         =       0.02171544 Ry
     PV energy                 =      -0.08083237 Ry
     correction to one-el term =     178.33930896 Ry

     iteration # 16     ecut=    50.00 Ry     beta= 0.70
     Davidson diagonalization with overlap
     ethr =  1.55E-06,  avg # of iterations =  6.0

     add environment contribution to local potential
     Polarization accuracy = 8.4E-12, # of iterations =  42

     total cpu time spent up to now is     6106.0 secs

     total energy              =   -3432.78702817 Ry
     estimated scf accuracy    <       0.00668896 Ry
     electrostatic embedding   =      -0.09916166 Ry
     cavitation energy         =       0.02168966 Ry
     PV energy                 =      -0.08088225 Ry
     correction to one-el term =     178.71608975 Ry

     iteration # 17     ecut=    50.00 Ry     beta= 0.70
     Davidson diagonalization with overlap
     ethr =  1.55E-06,  avg # of iterations = 18.0

     negative rho (up, down):  2.398E-04 0.000E+00

     add environment contribution to local potential
     Polarization accuracy = 5.1E-12, # of iterations =  42

     total cpu time spent up to now is     6392.3 secs

     total energy              =   -3432.78716364 Ry
     estimated scf accuracy    <       0.00213616 Ry
     electrostatic embedding   =      -0.09627624 Ry
     cavitation energy         =       0.02167240 Ry
     PV energy                 =      -0.08102792 Ry
     correction to one-el term =     179.28555719 Ry

     iteration # 18     ecut=    50.00 Ry     beta= 0.70
     Davidson diagonalization with overlap
     ethr =  5.87E-07,  avg # of iterations =  8.0

     negative rho (up, down):  9.940E-04 0.000E+00

     add environment contribution to local potential
     Polarization accuracy = 5.5E-12, # of iterations =  42

     total cpu time spent up to now is     6722.2 secs

     total energy              =   -3432.78748388 Ry
     estimated scf accuracy    <       0.00027674 Ry
     electrostatic embedding   =      -0.09199045 Ry
     cavitation energy         =       0.02165936 Ry
     PV energy                 =      -0.08115320 Ry
     correction to one-el term =     179.96161686 Ry

     iteration # 19     ecut=    50.00 Ry     beta= 0.70
     Davidson diagonalization with overlap
     ethr =  7.60E-08,  avg # of iterations =  3.0

     negative rho (up, down):  2.161E-03 0.000E+00

     add environment contribution to local potential
     Polarization accuracy = 5.3E-12, # of iterations =  42

     total cpu time spent up to now is     7036.1 secs

     total energy              =   -3432.78753662 Ry
     estimated scf accuracy    <       0.00011444 Ry
     electrostatic embedding   =      -0.09160151 Ry
     cavitation energy         =       0.02165584 Ry
     PV energy                 =      -0.08115000 Ry
     correction to one-el term =     180.11033075 Ry

     iteration # 20     ecut=    50.00 Ry     beta= 0.70
     Davidson diagonalization with overlap
     ethr =  3.14E-08,  avg # of iterations =  5.0

     negative rho (up, down):  1.480E-03 0.000E+00

     add environment contribution to local potential
     Polarization accuracy = 5.7E-12, # of iterations =  42

     total cpu time spent up to now is     7327.8 secs

     total energy              =   -3432.78755456 Ry
     estimated scf accuracy    <       0.00002752 Ry
     electrostatic embedding   =      -0.09082506 Ry
     cavitation energy         =       0.02165179 Ry
     PV energy                 =      -0.08115167 Ry
     correction to one-el term =     180.29524149 Ry

     iteration # 21     ecut=    50.00 Ry     beta= 0.70
     Davidson diagonalization with overlap
     ethr =  7.56E-09,  avg # of iterations =  2.0

     negative rho (up, down):  6.543E-04 0.000E+00

     add environment contribution to local potential
     Polarization accuracy = 6.6E-12, # of iterations =  42

     total cpu time spent up to now is     7659.5 secs

     total energy              =   -3432.78755762 Ry
     estimated scf accuracy    <       0.00002477 Ry
     electrostatic embedding   =      -0.09031789 Ry
     cavitation energy         =       0.02165460 Ry
     PV energy                 =      -0.08113671 Ry
     correction to one-el term =     180.34248691 Ry

     iteration # 22     ecut=    50.00 Ry     beta= 0.70
     Davidson diagonalization with overlap
     ethr =  6.81E-09,  avg # of iterations =  6.0

     negative rho (up, down):  4.321E-04 0.000E+00

     add environment contribution to local potential
     Polarization accuracy = 6.9E-12, # of iterations =  42

     total cpu time spent up to now is     8009.8 secs

     total energy              =   -3432.78756112 Ry
     estimated scf accuracy    <       0.00000728 Ry
     electrostatic embedding   =      -0.08970728 Ry
     cavitation energy         =       0.02165796 Ry
     PV energy                 =      -0.08111293 Ry
     correction to one-el term =     180.40065972 Ry

     iteration # 23     ecut=    50.00 Ry     beta= 0.70
     Davidson diagonalization with overlap
     ethr =  2.00E-09,  avg # of iterations =  3.0

     negative rho (up, down):  3.175E-04 0.000E+00

     add environment contribution to local potential
     Polarization accuracy = 6.9E-12, # of iterations =  42

     total cpu time spent up to now is     8329.4 secs

     total energy              =   -3432.78756233 Ry
     estimated scf accuracy    <       0.00000103 Ry
     electrostatic embedding   =      -0.08932542 Ry
     cavitation energy         =       0.02165887 Ry
     PV energy                 =      -0.08110536 Ry
     correction to one-el term =     180.42962278 Ry

     iteration # 24     ecut=    50.00 Ry     beta= 0.70
     Davidson diagonalization with overlap
     ethr =  2.84E-10,  avg # of iterations =  2.0

     negative rho (up, down):  2.018E-04 0.000E+00

     add environment contribution to local potential
     Polarization accuracy = 6.5E-12, # of iterations =  43

     total cpu time spent up to now is     8608.3 secs

     total energy              =   -3432.78756256 Ry
     estimated scf accuracy    <       0.00000140 Ry
     electrostatic embedding   =      -0.08924419 Ry
     cavitation energy         =       0.02165880 Ry
     PV energy                 =      -0.08110377 Ry
     correction to one-el term =     180.42813473 Ry

     iteration # 25     ecut=    50.00 Ry     beta= 0.70
     Davidson diagonalization with overlap
     ethr =  2.84E-10,  avg # of iterations =  2.0

     negative rho (up, down):  1.455E-04 0.000E+00

     add environment contribution to local potential
     Polarization accuracy = 6.9E-12, # of iterations =  42

     total cpu time spent up to now is     8919.4 secs

     total energy              =   -3432.78756268 Ry
     estimated scf accuracy    <       0.00000018 Ry
     electrostatic embedding   =      -0.08920002 Ry
     cavitation energy         =       0.02165930 Ry
     PV energy                 =      -0.08110253 Ry
     correction to one-el term =     180.42213759 Ry

     iteration # 26     ecut=    50.00 Ry     beta= 0.70
     Davidson diagonalization with overlap
     ethr =  5.00E-11,  avg # of iterations =  3.0

     negative rho (up, down):  1.770E-04 0.000E+00

     add environment contribution to local potential
     Polarization accuracy = 6.9E-12, # of iterations =  42

     total cpu time spent up to now is     9154.9 secs

     total energy              =   -3432.78756295 Ry
     estimated scf accuracy    <       0.00000017 Ry
     electrostatic embedding   =      -0.08911170 Ry
     cavitation energy         =       0.02165973 Ry
     PV energy                 =      -0.08110121 Ry
     correction to one-el term =     180.42516320 Ry

     iteration # 27     ecut=    50.00 Ry     beta= 0.70
     Davidson diagonalization with overlap
     ethr =  4.58E-11,  avg # of iterations =  2.0

     negative rho (up, down):  1.559E-04 0.000E+00

     add environment contribution to local potential
     Polarization accuracy = 7.3E-12, # of iterations =  44

     total cpu time spent up to now is     9423.8 secs

     total energy              =   -3432.78756357 Ry
     estimated scf accuracy    <       0.00000010 Ry
     electrostatic embedding   =      -0.08906292 Ry
     cavitation energy         =       0.02165972 Ry
     PV energy                 =      -0.08110288 Ry
     correction to one-el term =     180.43226687 Ry

     iteration # 28     ecut=    50.00 Ry     beta= 0.70
     Davidson diagonalization with overlap
     ethr =  2.72E-11,  avg # of iterations =  3.0

     negative rho (up, down):  1.708E-04 0.000E+00

     add environment contribution to local potential
     Polarization accuracy = 6.7E-12, # of iterations =  42

     total cpu time spent up to now is     9728.7 secs

     total energy              =   -3432.78756438 Ry
     estimated scf accuracy    <       0.00000009 Ry
     electrostatic embedding   =      -0.08896098 Ry
     cavitation energy         =       0.02166015 Ry
     PV energy                 =      -0.08110305 Ry
     correction to one-el term =     180.43936091 Ry

     iteration # 29     ecut=    50.00 Ry     beta= 0.70
     Davidson diagonalization with overlap
     ethr =  2.41E-11,  avg # of iterations =  3.0

     negative rho (up, down):  1.755E-04 0.000E+00

     add environment contribution to local potential
     Polarization accuracy = 6.7E-12, # of iterations =  42

     total cpu time spent up to now is    10032.6 secs

     total energy              =   -3432.78756503 Ry
     estimated scf accuracy    <       0.00000007 Ry
     electrostatic embedding   =      -0.08890458 Ry
     cavitation energy         =       0.02166032 Ry
     PV energy                 =      -0.08110379 Ry
     correction to one-el term =     180.44682800 Ry

     iteration # 30     ecut=    50.00 Ry     beta= 0.70
     Davidson diagonalization with overlap
     ethr =  1.85E-11,  avg # of iterations =  1.0

     negative rho (up, down):  1.621E-04 0.000E+00

     add environment contribution to local potential
     Polarization accuracy = 6.6E-12, # of iterations =  42

     total cpu time spent up to now is    10338.1 secs

     total energy              =   -3432.78756533 Ry
     estimated scf accuracy    <       0.00000006 Ry
     electrostatic embedding   =      -0.08889672 Ry
     cavitation energy         =       0.02166035 Ry
     PV energy                 =      -0.08110406 Ry
     correction to one-el term =     180.44831672 Ry

     iteration # 31     ecut=    50.00 Ry     beta= 0.70
     Davidson diagonalization with overlap
     ethr =  1.60E-11,  avg # of iterations =  2.0

     negative rho (up, down):  1.566E-04 0.000E+00

     add environment contribution to local potential
     Polarization accuracy = 7.9E-12, # of iterations =  42

     total cpu time spent up to now is    10660.8 secs

     total energy              =   -3432.78756571 Ry
     estimated scf accuracy    <       0.00000005 Ry
     electrostatic embedding   =      -0.08888565 Ry
     cavitation energy         =       0.02166045 Ry
     PV energy                 =      -0.08110376 Ry
     correction to one-el term =     180.44831715 Ry

     iteration # 32     ecut=    50.00 Ry     beta= 0.70
     Davidson diagonalization with overlap
     ethr =  1.51E-11,  avg # of iterations =  2.0

     negative rho (up, down):  1.401E-04 0.000E+00

     add environment contribution to local potential
     Polarization accuracy = 6.4E-12, # of iterations =  42

     total cpu time spent up to now is    11014.5 secs

     total energy              =   -3432.78756611 Ry
     estimated scf accuracy    <       0.00000005 Ry
     electrostatic embedding   =      -0.08887237 Ry
     cavitation energy         =       0.02166052 Ry
     PV energy                 =      -0.08110369 Ry
     correction to one-el term =     180.44916405 Ry

     iteration # 33     ecut=    50.00 Ry     beta= 0.70
     Davidson diagonalization with overlap
     ethr =  1.36E-11,  avg # of iterations =  2.0

     negative rho (up, down):  1.204E-04 0.000E+00

     add environment contribution to local potential
     Polarization accuracy = 6.3E-12, # of iterations =  42

     total cpu time spent up to now is    11336.9 secs

     total energy              =   -3432.78756740 Ry
     estimated scf accuracy    <       0.00000005 Ry
     electrostatic embedding   =      -0.08886780 Ry
     cavitation energy         =       0.02166060 Ry
     PV energy                 =      -0.08110330 Ry
     correction to one-el term =     180.44810165 Ry

     iteration # 34     ecut=    50.00 Ry     beta= 0.70
     Davidson diagonalization with overlap
     ethr =  1.30E-11,  avg # of iterations =  2.0

     negative rho (up, down):  1.180E-04 0.000E+00

     add environment contribution to local potential
     Polarization accuracy = 6.2E-12, # of iterations =  42

     total cpu time spent up to now is    11654.1 secs

     total energy              =   -3432.78756895 Ry
     estimated scf accuracy    <       0.00000004 Ry
     electrostatic embedding   =      -0.08888177 Ry
     cavitation energy         =       0.02166063 Ry
     PV energy                 =      -0.08110288 Ry
     correction to one-el term =     180.44384273 Ry

     iteration # 35     ecut=    50.00 Ry     beta= 0.70
     Davidson diagonalization with overlap
     ethr =  1.04E-11,  avg # of iterations =  2.0

     negative rho (up, down):  1.091E-04 0.000E+00

     add environment contribution to local potential
     Polarization accuracy = 6.2E-12, # of iterations =  42

     total cpu time spent up to now is    11905.3 secs

     total energy              =   -3432.78757040 Ry
     estimated scf accuracy    <       0.00000005 Ry
     electrostatic embedding   =      -0.08889638 Ry
     cavitation energy         =       0.02166060 Ry
     PV energy                 =      -0.08110292 Ry
     correction to one-el term =     180.44197301 Ry

     iteration # 36     ecut=    50.00 Ry     beta= 0.70
     Davidson diagonalization with overlap
     ethr =  1.04E-11,  avg # of iterations =  5.0

     negative rho (up, down):  1.093E-04 0.000E+00

     add environment contribution to local potential
     Polarization accuracy = 6.2E-12, # of iterations =  42

     total cpu time spent up to now is    12271.1 secs

     total energy              =   -3432.78757312 Ry
     estimated scf accuracy    <       0.00000002 Ry
     electrostatic embedding   =      -0.08889931 Ry
     cavitation energy         =       0.02166066 Ry
     PV energy                 =      -0.08110286 Ry
     correction to one-el term =     180.44028095 Ry

     iteration # 37     ecut=    50.00 Ry     beta= 0.70
     Davidson diagonalization with overlap
     ethr =  6.74E-12,  avg # of iterations =  5.0

     negative rho (up, down):  1.344E-04 0.000E+00

     add environment contribution to local potential
     Polarization accuracy = 6.4E-12, # of iterations =  42

     total cpu time spent up to now is    12551.8 secs

     total energy              =   -3432.78757574 Ry
     estimated scf accuracy    <       0.00000002 Ry
     electrostatic embedding   =      -0.08892680 Ry
     cavitation energy         =       0.02166059 Ry
     PV energy                 =      -0.08110290 Ry
     correction to one-el term =     180.43736344 Ry

     iteration # 38     ecut=    50.00 Ry     beta= 0.70
     Davidson diagonalization with overlap
     ethr =  5.24E-12,  avg # of iterations =  6.0

     negative rho (up, down):  1.392E-04 0.000E+00

     add environment contribution to local potential
     Polarization accuracy = 6.3E-12, # of iterations =  42

     total cpu time spent up to now is    12877.6 secs

     total energy              =   -3432.78758233 Ry
     estimated scf accuracy    <       0.00000002 Ry
     electrostatic embedding   =      -0.08893756 Ry
     cavitation energy         =       0.02166049 Ry
     PV energy                 =      -0.08110367 Ry
     correction to one-el term =     180.43996006 Ry

     iteration # 39     ecut=    50.00 Ry     beta= 0.70
     Davidson diagonalization with overlap
     ethr =  5.24E-12,  avg # of iterations =  2.0

     negative rho (up, down):  1.451E-04 0.000E+00

     add environment contribution to local potential
     Polarization accuracy = 6.3E-12, # of iterations =  42

     total cpu time spent up to now is    13178.3 secs

     total energy              =   -3432.78758310 Ry
     estimated scf accuracy    <          9.6E-09 Ry
     electrostatic embedding   =      -0.08893163 Ry
     cavitation energy         =       0.02166047 Ry
     PV energy                 =      -0.08110362 Ry
     correction to one-el term =     180.44133029 Ry

     iteration # 40     ecut=    50.00 Ry     beta= 0.70
     Davidson diagonalization with overlap
     ethr =  2.63E-12,  avg # of iterations =  1.0

     negative rho (up, down):  1.509E-04 0.000E+00

     add environment contribution to local potential
     Polarization accuracy = 4.4E-12, # of iterations =  42

     total cpu time spent up to now is    13435.3 secs

     total energy              =   -3432.78758297 Ry
     estimated scf accuracy    <       0.00000002 Ry
     electrostatic embedding   =      -0.08893227 Ry
     cavitation energy         =       0.02166042 Ry
     PV energy                 =      -0.08110367 Ry
     correction to one-el term =     180.44195051 Ry

     iteration # 41     ecut=    50.00 Ry     beta= 0.70
     Davidson diagonalization with overlap
     ethr =  2.63E-12,  avg # of iterations =  3.0

     negative rho (up, down):  1.539E-04 0.000E+00

     add environment contribution to local potential
     Polarization accuracy = 4.1E-12, # of iterations =  43

     total cpu time spent up to now is    13756.5 secs

     total energy              =   -3432.78758569 Ry
     estimated scf accuracy    <          3.7E-09 Ry
     electrostatic embedding   =      -0.08892231 Ry
     cavitation energy         =       0.02166041 Ry
     PV energy                 =      -0.08110359 Ry
     correction to one-el term =     180.44387219 Ry

     iteration # 42     ecut=    50.00 Ry     beta= 0.70
     Davidson diagonalization with overlap
     ethr =  1.02E-12,  avg # of iterations =  3.0

     negative rho (up, down):  1.516E-04 0.000E+00

     add environment contribution to local potential
     Polarization accuracy = 3.8E-12, # of iterations =  42

     total cpu time spent up to now is    14055.0 secs

     total energy              =   -3432.78758578 Ry
     estimated scf accuracy    <          1.9E-09 Ry
     electrostatic embedding   =      -0.08891244 Ry
     cavitation energy         =       0.02166040 Ry
     PV energy                 =      -0.08110350 Ry
     correction to one-el term =     180.44514624 Ry

     iteration # 43     ecut=    50.00 Ry     beta= 0.70
     Davidson diagonalization with overlap
     ethr =  5.10E-13,  avg # of iterations =  5.0

     negative rho (up, down):  1.508E-04 0.000E+00

     the potential shift due to the Gaussian-smeared nuclei is    -1.3065 ev

     total cpu time spent up to now is    14337.7 secs

     End of self-consistent calculation

          k = 0.2500 0.2573 0.0000 ( 35510 PWs)   bands (ev):

   -77.8773 -77.8638 -77.8508 -77.8374 -77.0585 -77.0535 -77.0457 -77.0407
   -76.9882 -76.9833 -76.8172 -76.7955 -48.4105 -48.3970 -48.3738 -48.3605
   -47.7748 -47.7613 -47.6816 -47.6681 -47.4999 -47.4864 -47.4663 -47.4529
   -47.4026 -47.4010 -47.3897 -47.3880 -47.2303 -47.2241 -47.0529 -47.0323
   -47.0162 -46.9962 -46.9394 -46.9234 -46.9107 -46.8505 -46.8470 -46.8394
   -46.8371 -46.8367 -46.8242 -46.8237 -46.7968 -46.7000 -46.6790 -46.6409
   -23.6762 -23.6146 -23.3520 -23.3338 -23.1498 -23.0337 -22.9500 -22.8063
   -22.7282 -22.6149 -22.5568 -22.5340 -22.3687 -22.2906 -22.2868 -22.2615
   -22.2522 -22.1270 -22.0883 -22.0720 -22.0670 -22.0607 -21.9167 -21.8998
   -21.5829 -21.4226 -21.4069 -21.3275 -12.2925 -12.0122 -11.5670 -11.5152
   -11.4694 -11.4553 -11.2190 -10.9211 -10.8889 -10.8729 -10.7298 -10.6829
   -10.5779 -10.5115 -10.4759 -10.3886 -10.3550 -10.3393 -10.3018 -10.2161
   -10.1799 -10.1679 -10.1596 -10.1409  -9.9675  -9.8865  -9.6815  -9.6332
    -9.4319  -9.2510  -9.1865  -9.0845  -9.0631  -9.0582  -8.9624  -8.9022
    -8.8114  -8.7134  -8.6651  -8.6417  -8.6122  -8.4802  -8.3793  -8.2825
    -8.2534  -8.1661  -8.0930  -8.0135  -7.9537  -7.9320  -7.9153  -7.8696
    -7.8630  -7.8172  -7.8077  -7.7544  -7.7264  -7.6402  -7.6126  -7.4981
    -7.4773  -7.4290  -7.2830  -7.1975  -7.1422  -7.0559  -6.8907  -6.8305
    -6.8139  -6.6468  -6.5652  -6.5283  -6.4133  -6.3389  -6.2652  -6.2198
    -6.2096  -6.1940  -6.0489  -5.9706  -5.9339  -5.8592  -5.7732  -5.5508
    -4.6756  -4.6550  -4.5403  -4.5306  -4.4886  -4.4427  -4.3310  -4.2838
    -4.2540  -4.2174  -4.2156  -4.1660  -4.0987  -4.0540  -4.0392  -3.9959
    -3.8902  -3.8428  -3.8338  -3.7856  -3.7831  -3.7148  -3.3831  -3.3345
    -3.2686  -3.2094  -3.1683  -3.0335  -2.9066  -2.7878  -2.7632  -2.7438
    -2.7052  -2.6918  -2.4732  -2.3054  -1.6290  -1.6100  -1.4163  -1.1794
    -1.0863  -0.9608  -0.7969  -0.2944  -0.2365  -0.1106  -0.0478   0.1268
     0.2900   0.3242   0.3285   0.4179   0.5738   0.7236   0.8243   1.0021
     1.1386   1.2666

     the Fermi energy is    -3.5783 ev

!    total energy              =   -3432.78758649 Ry
     estimated scf accuracy    <          5.8E-10 Ry
     smearing contrib. (-TS)   =       0.06290876 Ry
     internal energy E=F+TS    =   -3432.85049526 Ry

     The total energy is F=E-TS. E is the sum of the following terms:
     one-electron contribution =  -25204.23722135 Ry
     hartree contribution      =   12589.66195758 Ry
     xc contribution           =    -446.14275095 Ry
     ewald contribution        =    9714.10219239 Ry
     one-center paw contrib.   =    -266.53102844 Ry
     electrostatic embedding   =      -0.08891341 Ry
     cavitation energy         =       0.02166041 Ry
     PV energy                 =      -0.08110345 Ry
     correction to one-el term =     180.44471196 Ry

     WARNING: you are using the parabolic pbc correction;
              the potential shift above must be added to 
              band and Fermi energies.

     convergence has been achieved in  43 iterations

     negative rho (up, down):  1.508E-04 0.000E+00

     Forces acting on atoms (cartesian axes, Ry/au):

     atom    1 type  1   force =     0.00000000   -0.00021699   -0.01085823
     atom    2 type  1   force =     0.00000000   -0.00022252   -0.01219181
     atom    3 type  1   force =     0.00000000   -0.00176256    0.00274966
     atom    4 type  1   force =     0.00000000   -0.00177045    0.00272809
     atom    5 type  2   force =    -0.00029431    0.00042927   -0.00449832
     atom    6 type  2   force =     0.00029431    0.00042927   -0.00449832
     atom    7 type  1   force =    -0.00029571    0.01819520    0.00106852
     atom    8 type  1   force =     0.00029571    0.01819520    0.00106852
     atom    9 type  2   force =     0.00000000   -0.00012170    0.00355255
     atom   10 type  2   force =     0.00000000   -0.00005276    0.00642044
     atom   11 type  1   force =    -0.00025629   -0.01727792    0.00046678
     atom   12 type  1   force =     0.00025629   -0.01727792    0.00046678
     atom   13 type  1   force =     0.00000000   -0.00012246    0.00631476
     atom   14 type  1   force =     0.00000000   -0.00010877    0.00629269
     atom   15 type  1   force =     0.00000000   -0.00006011    0.00278238
     atom   16 type  1   force =     0.00000000   -0.00013418   -0.00539727
     atom   17 type  2   force =     0.00000000    0.00010149    0.00000000
     atom   18 type  2   force =     0.00000000   -0.00001830    0.00000000
     atom   19 type  1   force =     0.00238823   -0.02687784    0.00000000
     atom   20 type  1   force =    -0.00238823   -0.02687784    0.00000000
     atom   21 type  2   force =     0.00343828   -0.00005449    0.00000000
     atom   22 type  2   force =    -0.00343828   -0.00005449    0.00000000
     atom   23 type  1   force =     0.00248351    0.02719850    0.00000000
     atom   24 type  1   force =    -0.00248351    0.02719850    0.00000000
     atom   25 type  1   force =     0.00000000   -0.00006011   -0.00278238
     atom   26 type  1   force =     0.00000000   -0.00013418    0.00539727
     atom   27 type  1   force =     0.00000000   -0.00012246   -0.00631476
     atom   28 type  1   force =     0.00000000   -0.00010877   -0.00629269
     atom   29 type  2   force =    -0.00029431    0.00042927    0.00449832
     atom   30 type  2   force =     0.00029431    0.00042927    0.00449832
     atom   31 type  1   force =    -0.00029571    0.01819520   -0.00106852
     atom   32 type  1   force =     0.00029571    0.01819520   -0.00106852
     atom   33 type  2   force =     0.00000000   -0.00012170   -0.00355255
     atom   34 type  2   force =     0.00000000   -0.00005276   -0.00642044
     atom   35 type  1   force =    -0.00025629   -0.01727792   -0.00046678
     atom   36 type  1   force =     0.00025629   -0.01727792   -0.00046678
     atom   37 type  1   force =     0.00000000   -0.00176256   -0.00274966
     atom   38 type  1   force =     0.00000000   -0.00177045   -0.00272809
     atom   39 type  1   force =     0.00000000   -0.00021699    0.01085823
     atom   40 type  1   force =     0.00000000   -0.00022252    0.01219181
     atom   41 type  3   force =     0.00000000    0.00078325   -0.00433994
     atom   42 type  3   force =     0.00000000    0.00078325    0.00433994
     atom   43 type  3   force =     0.00000000    0.00078838   -0.00432223
     atom   44 type  3   force =     0.00000000    0.00078838    0.00432223
     The non-local contrib.  to forces
     atom    1 type  1   force =     0.00000000   -0.00137899    1.22595263
     atom    2 type  1   force =     0.00000000   -0.00146377    1.24785956
     atom    3 type  1   force =     0.00000000    0.47250608   -0.90118206
     atom    4 type  1   force =     0.00000000    0.47023382   -0.90041780
     atom    5 type  2   force =     0.00062848    0.00419485    0.04007443
     atom    6 type  2   force =    -0.00062848    0.00419485    0.04007443
     atom    7 type  1   force =     0.00088003    0.05100932   -0.09112546
     atom    8 type  1   force =    -0.00088003    0.05100932   -0.09112546
     atom    9 type  2   force =     0.00000000   -0.00035645   -0.06779418
     atom   10 type  2   force =     0.00000000   -0.00041327   -0.05422233
     atom   11 type  1   force =     0.00052112   -0.06043343   -0.07751047
     atom   12 type  1   force =    -0.00052112   -0.06043343   -0.07751047
     atom   13 type  1   force =     0.00000000    0.01928871   -0.04231733
     atom   14 type  1   force =     0.00000000    0.01943616   -0.04304274
     atom   15 type  1   force =     0.00000000   -0.00429889    0.23867603
     atom   16 type  1   force =     0.00000000   -0.00368246    0.19977743
     atom   17 type  2   force =     0.00000000   -0.00042073    0.00000000
     atom   18 type  2   force =     0.00000000   -0.00058073    0.00000000
     atom   19 type  1   force =    -0.02328129   -0.00513182    0.00000000
     atom   20 type  1   force =     0.02328129   -0.00513182    0.00000000
     atom   21 type  2   force =     0.01368066   -0.00020113    0.00000000
     atom   22 type  2   force =    -0.01368066   -0.00020113    0.00000000
     atom   23 type  1   force =    -0.02371756    0.00332321    0.00000000
     atom   24 type  1   force =     0.02371756    0.00332321    0.00000000
     atom   25 type  1   force =     0.00000000   -0.00429889   -0.23867603
     atom   26 type  1   force =     0.00000000   -0.00368246   -0.19977743
     atom   27 type  1   force =     0.00000000    0.01928871    0.04231733
     atom   28 type  1   force =     0.00000000    0.01943616    0.04304274
     atom   29 type  2   force =     0.00062848    0.00419485   -0.04007443
     atom   30 type  2   force =    -0.00062848    0.00419485   -0.04007443
     atom   31 type  1   force =     0.00088003    0.05100932    0.09112546
     atom   32 type  1   force =    -0.00088003    0.05100932    0.09112546
     atom   33 type  2   force =     0.00000000   -0.00035645    0.06779418
     atom   34 type  2   force =     0.00000000   -0.00041327    0.05422233
     atom   35 type  1   force =     0.00052112   -0.06043343    0.07751047
     atom   36 type  1   force =    -0.00052112   -0.06043343    0.07751047
     atom   37 type  1   force =     0.00000000    0.47250608    0.90118206
     atom   38 type  1   force =     0.00000000    0.47023382    0.90041780
     atom   39 type  1   force =     0.00000000   -0.00137899   -1.22595263
     atom   40 type  1   force =     0.00000000   -0.00146377   -1.24785956
     atom   41 type  3   force =     0.00000000   -0.02593781    0.11017618
     atom   42 type  3   force =     0.00000000   -0.02593781   -0.11017618
     atom   43 type  3   force =     0.00000000   -0.02587205    0.11021314
     atom   44 type  3   force =     0.00000000   -0.02587205   -0.11021314
     The ionic contribution  to forces
     atom    1 type  1   force =    -0.00000000    0.05684573  -99.94089913
     atom    2 type  1   force =     0.00000000    0.05913665  -99.96303355
     atom    3 type  1   force =    -0.00000000   -0.85002565  -90.02356705
     atom    4 type  1   force =    -0.00000000   -0.84759815  -90.02576838
     atom    5 type  2   force =     0.06132136   -0.07337736 -167.68217678
     atom    6 type  2   force =    -0.06132136   -0.07337736 -167.68217678
     atom    7 type  1   force =     0.02959265   -0.40654445  -61.62563336
     atom    8 type  1   force =    -0.02959265   -0.40654445  -61.62563336
     atom    9 type  2   force =     0.00000000    0.12454782 -171.25522702
     atom   10 type  2   force =    -0.00000000    0.12728631 -168.63928487
     atom   11 type  1   force =     0.03351916    0.45544790  -61.92522846
     atom   12 type  1   force =    -0.03351916    0.45544790  -61.92522846
     atom   13 type  1   force =    -0.00000000   -0.05893708  -37.10308557
     atom   14 type  1   force =     0.00000000   -0.06435378  -37.01752224
     atom   15 type  1   force =    -0.00000000   -0.00317612  -27.29101262
     atom   16 type  1   force =    -0.00000000   -0.00449987  -26.56557846
     atom   17 type  2   force =    -0.00000000    0.13678595   -0.00045364
     atom   18 type  2   force =    -0.00000000    0.12466844   -0.00045232
     atom   19 type  1   force =     0.26100166    1.14966351   -0.00007889
     atom   20 type  1   force =    -0.26100166    1.14966351   -0.00007889
     atom   21 type  2   force =    -0.11812803   -0.05091143   -0.00024914
     atom   22 type  2   force =     0.11812803   -0.05091143   -0.00024914
     atom   23 type  1   force =     0.26807409   -1.12067675   -0.00007919
     atom   24 type  1   force =    -0.26807409   -1.12067675   -0.00007919
     atom   25 type  1   force =    -0.00000000   -0.00317593   27.29086946
     atom   26 type  1   force =    -0.00000000   -0.00449969   26.56537677
     atom   27 type  1   force =     0.00000000   -0.05893977   37.10339365
     atom   28 type  1   force =    -0.00000000   -0.06435659   37.01782925
     atom   29 type  2   force =     0.06132337   -0.07338225  167.68244535
     atom   30 type  2   force =    -0.06132337   -0.07338225  167.68244535
     atom   31 type  1   force =     0.02959394   -0.40657029   61.62569762
     atom   32 type  1   force =    -0.02959394   -0.40657029   61.62569762
     atom   33 type  2   force =     0.00000000    0.12455060  171.25537760
     atom   34 type  2   force =    -0.00000000    0.12728907  168.63942828
     atom   35 type  1   force =     0.03352045    0.45547516   61.92529361
     atom   36 type  1   force =    -0.03352045    0.45547516   61.92529361
     atom   37 type  1   force =    -0.00000000   -0.85013659   90.02334218
     atom   38 type  1   force =    -0.00000000   -0.84770878   90.02554332
     atom   39 type  1   force =    -0.00000000    0.05684636   99.94096032
     atom   40 type  1   force =     0.00000000    0.05913731   99.96309363
     atom   41 type  3   force =     0.00000000    0.70038110  -18.16087965
     atom   42 type  3   force =    -0.00000000    0.70049220   18.16122398
     atom   43 type  3   force =     0.00000000    0.70054082  -18.16205723
     atom   44 type  3   force =     0.00000000    0.70065160   18.16240173
     The local contribution  to forces
     atom    1 type  1   force =     0.00000000   -0.01724931   98.61695906
     atom    2 type  1   force =    -0.00000000   -0.01978420   98.61706823
     atom    3 type  1   force =     0.00000000    0.34235832   91.02064334
     atom    4 type  1   force =     0.00000000    0.34201700   91.02256097
     atom    5 type  2   force =    -0.06230590    0.04360992  167.70526492
     atom    6 type  2   force =     0.06230590    0.04360992  167.70526492
     atom    7 type  1   force =    -0.03076726    0.40241498   61.71306226
     atom    8 type  1   force =     0.03076726    0.40241498   61.71306226
     atom    9 type  2   force =     0.00000000   -0.09771675  171.25082569
     atom   10 type  2   force =     0.00000000   -0.10085156  168.62547730
     atom   11 type  1   force =    -0.03426496   -0.43398454   61.98194406
     atom   12 type  1   force =     0.03426496   -0.43398454   61.98194406
     atom   13 type  1   force =     0.00000000    0.03678602   37.15864777
     atom   14 type  1   force =     0.00000000    0.04206454   37.07376840
     atom   15 type  1   force =     0.00000000    0.00886855   27.05364264
     atom   16 type  1   force =     0.00000000    0.00940012   26.35836495
     atom   17 type  2   force =    -0.00000000   -0.13831741   -0.00580768
     atom   18 type  2   force =     0.00000000   -0.12616147   -0.00579312
     atom   19 type  1   force =    -0.23552911   -1.17004740   -0.00242928
     atom   20 type  1   force =     0.23552911   -1.17004740   -0.00242928
     atom   21 type  2   force =     0.10789206    0.05310285   -0.00601001
     atom   22 type  2   force =    -0.10789206    0.05310285   -0.00601001
     atom   23 type  1   force =    -0.24207255    1.14265545   -0.00242764
     atom   24 type  1   force =     0.24207255    1.14265545   -0.00242764
     atom   25 type  1   force =     0.00000000    0.00886769  -27.05539170
     atom   26 type  1   force =    -0.00000000    0.00939942  -26.36016629
     atom   27 type  1   force =    -0.00000000    0.03678436  -37.16041082
     atom   28 type  1   force =     0.00000000    0.04206281  -37.07553099
     atom   29 type  2   force =    -0.06230590    0.04361761 -167.71129443
     atom   30 type  2   force =     0.06230590    0.04361761 -167.71129443
     atom   31 type  1   force =    -0.03076749    0.40245451  -61.71548717
     atom   32 type  1   force =     0.03076749    0.40245451  -61.71548717
     atom   33 type  2   force =    -0.00000000   -0.09772241 -171.25652993
     atom   34 type  2   force =     0.00000000   -0.10085690 -168.63122423
     atom   35 type  1   force =    -0.03426523   -0.43402439  -61.98437098
     atom   36 type  1   force =     0.03426523   -0.43402439  -61.98437098
     atom   37 type  1   force =     0.00000000    0.34240697  -91.02432927
     atom   38 type  1   force =     0.00000000    0.34206554  -91.02624772
     atom   39 type  1   force =     0.00000000   -0.01725358  -98.61833974
     atom   40 type  1   force =     0.00000000   -0.01978831  -98.61846113
     atom   41 type  3   force =    -0.00000000   -0.68171115   18.09793738
     atom   42 type  3   force =     0.00000000   -0.68171115  -18.09793738
     atom   43 type  3   force =    -0.00000000   -0.68205097   18.09935694
     atom   44 type  3   force =     0.00000000   -0.68205097  -18.09935694
     The core correction contribution to forces
     atom    1 type  1   force =    -0.00000000    0.00002969   -0.01011759
     atom    2 type  1   force =    -0.00000000    0.00002941   -0.01044596
     atom    3 type  1   force =     0.00000000   -0.00473365    0.00868659
     atom    4 type  1   force =    -0.00000000   -0.00470867    0.00868072
     atom    5 type  2   force =     0.00000000    0.00000000    0.00000000
     atom    6 type  2   force =     0.00000000    0.00000000    0.00000000
     atom    7 type  1   force =     0.00001309   -0.00119858    0.00093271
     atom    8 type  1   force =    -0.00001309   -0.00119858    0.00093271
     atom    9 type  2   force =     0.00000000    0.00000000    0.00000000
     atom   10 type  2   force =     0.00000000    0.00000000    0.00000000
     atom   11 type  1   force =     0.00001675    0.00131745    0.00077892
     atom   12 type  1   force =    -0.00001675    0.00131745    0.00077892
     atom   13 type  1   force =     0.00000000   -0.00022993    0.00033648
     atom   14 type  1   force =    -0.00000000   -0.00023098    0.00035458
     atom   15 type  1   force =     0.00000000    0.00004924   -0.00316361
     atom   16 type  1   force =    -0.00000000    0.00004248   -0.00229446
     atom   17 type  2   force =     0.00000000    0.00000000    0.00000000
     atom   18 type  2   force =     0.00000000    0.00000000    0.00000000
     atom   19 type  1   force =     0.00019786    0.00045974   -0.00000199
     atom   20 type  1   force =    -0.00019786    0.00045974   -0.00000199
     atom   21 type  2   force =     0.00000000    0.00000000    0.00000000
     atom   22 type  2   force =     0.00000000    0.00000000    0.00000000
     atom   23 type  1   force =     0.00020125   -0.00045357   -0.00000197
     atom   24 type  1   force =    -0.00020125   -0.00045357   -0.00000197
     atom   25 type  1   force =     0.00000000    0.00004924    0.00316164
     atom   26 type  1   force =     0.00000000    0.00004248    0.00229231
     atom   27 type  1   force =     0.00000000   -0.00022997   -0.00033856
     atom   28 type  1   force =    -0.00000000   -0.00023102   -0.00035667
     atom   29 type  2   force =     0.00000000    0.00000000    0.00000000
     atom   30 type  2   force =     0.00000000    0.00000000    0.00000000
     atom   31 type  1   force =     0.00001311   -0.00119847   -0.00093419
     atom   32 type  1   force =    -0.00001311   -0.00119847   -0.00093419
     atom   33 type  2   force =     0.00000000    0.00000000    0.00000000
     atom   34 type  2   force =     0.00000000    0.00000000    0.00000000
     atom   35 type  1   force =     0.00001677    0.00131737   -0.00078041
     atom   36 type  1   force =    -0.00001677    0.00131737   -0.00078041
     atom   37 type  1   force =    -0.00000000   -0.00473451   -0.00869234
     atom   38 type  1   force =    -0.00000000   -0.00470953   -0.00868649
     atom   39 type  1   force =    -0.00000000    0.00002966    0.01011591
     atom   40 type  1   force =     0.00000000    0.00002939    0.01044405
     atom   41 type  3   force =     0.00000000    0.00000000    0.00000000
     atom   42 type  3   force =     0.00000000    0.00000000    0.00000000
     atom   43 type  3   force =     0.00000000    0.00000000    0.00000000
     atom   44 type  3   force =     0.00000000    0.00000000    0.00000000
     The Hubbard contrib.    to forces
     atom    1 type  1   force =     0.00000000    0.00000000    0.00000000
     atom    2 type  1   force =     0.00000000    0.00000000    0.00000000
     atom    3 type  1   force =     0.00000000    0.00000000    0.00000000
     atom    4 type  1   force =     0.00000000    0.00000000    0.00000000
     atom    5 type  2   force =     0.00000000    0.00000000    0.00000000
     atom    6 type  2   force =     0.00000000    0.00000000    0.00000000
     atom    7 type  1   force =     0.00000000    0.00000000    0.00000000
     atom    8 type  1   force =     0.00000000    0.00000000    0.00000000
     atom    9 type  2   force =     0.00000000    0.00000000    0.00000000
     atom   10 type  2   force =     0.00000000    0.00000000    0.00000000
     atom   11 type  1   force =     0.00000000    0.00000000    0.00000000
     atom   12 type  1   force =     0.00000000    0.00000000    0.00000000
     atom   13 type  1   force =     0.00000000    0.00000000    0.00000000
     atom   14 type  1   force =     0.00000000    0.00000000    0.00000000
     atom   15 type  1   force =     0.00000000    0.00000000    0.00000000
     atom   16 type  1   force =     0.00000000    0.00000000    0.00000000
     atom   17 type  2   force =     0.00000000    0.00000000    0.00000000
     atom   18 type  2   force =     0.00000000    0.00000000    0.00000000
     atom   19 type  1   force =     0.00000000    0.00000000    0.00000000
     atom   20 type  1   force =     0.00000000    0.00000000    0.00000000
     atom   21 type  2   force =     0.00000000    0.00000000    0.00000000
     atom   22 type  2   force =     0.00000000    0.00000000    0.00000000
     atom   23 type  1   force =     0.00000000    0.00000000    0.00000000
     atom   24 type  1   force =     0.00000000    0.00000000    0.00000000
     atom   25 type  1   force =     0.00000000    0.00000000    0.00000000
     atom   26 type  1   force =     0.00000000    0.00000000    0.00000000
     atom   27 type  1   force =     0.00000000    0.00000000    0.00000000
     atom   28 type  1   force =     0.00000000    0.00000000    0.00000000
     atom   29 type  2   force =     0.00000000    0.00000000    0.00000000
     atom   30 type  2   force =     0.00000000    0.00000000    0.00000000
     atom   31 type  1   force =     0.00000000    0.00000000    0.00000000
     atom   32 type  1   force =     0.00000000    0.00000000    0.00000000
     atom   33 type  2   force =     0.00000000    0.00000000    0.00000000
     atom   34 type  2   force =     0.00000000    0.00000000    0.00000000
     atom   35 type  1   force =     0.00000000    0.00000000    0.00000000
     atom   36 type  1   force =     0.00000000    0.00000000    0.00000000
     atom   37 type  1   force =     0.00000000    0.00000000    0.00000000
     atom   38 type  1   force =     0.00000000    0.00000000    0.00000000
     atom   39 type  1   force =     0.00000000    0.00000000    0.00000000
     atom   40 type  1   force =     0.00000000    0.00000000    0.00000000
     atom   41 type  3   force =     0.00000000    0.00000000    0.00000000
     atom   42 type  3   force =     0.00000000    0.00000000    0.00000000
     atom   43 type  3   force =     0.00000000    0.00000000    0.00000000
     atom   44 type  3   force =     0.00000000    0.00000000    0.00000000
     The SCF correction term to forces
     atom    1 type  1   force =     0.00000000    0.00000380   -0.00000989
     atom    2 type  1   force =    -0.00000000    0.00000383   -0.00001011
     atom    3 type  1   force =     0.00000000   -0.00000453   -0.00000405
     atom    4 type  1   force =    -0.00000000   -0.00000455   -0.00000389
     atom    5 type  2   force =    -0.00000057   -0.00000395   -0.00003779
     atom    6 type  2   force =     0.00000057   -0.00000395   -0.00003779
     atom    7 type  1   force =    -0.00000061    0.00000616   -0.00001537
     atom    8 type  1   force =     0.00000061    0.00000616   -0.00001537
     atom    9 type  2   force =     0.00000000    0.00000401   -0.00004910
     atom   10 type  2   force =    -0.00000000    0.00000408   -0.00004752
     atom   11 type  1   force =    -0.00000058   -0.00000524   -0.00001722
     atom   12 type  1   force =     0.00000058   -0.00000524   -0.00001722
     atom   13 type  1   force =     0.00000000   -0.00000063   -0.00001388
     atom   14 type  1   force =    -0.00000000   -0.00000063   -0.00001385
     atom   15 type  1   force =     0.00000000    0.00000037   -0.00001347
     atom   16 type  1   force =    -0.00000000    0.00000035   -0.00001110
     atom   17 type  2   force =     0.00000000   -0.00000086    0.00000895
     atom   18 type  2   force =    -0.00000000   -0.00000088    0.00000892
     atom   19 type  1   force =     0.00000006    0.00000086    0.00000326
     atom   20 type  1   force =    -0.00000006    0.00000086    0.00000326
     atom   21 type  2   force =     0.00000100    0.00000081    0.00000864
     atom   22 type  2   force =    -0.00000100    0.00000081    0.00000864
     atom   23 type  1   force =     0.00000006   -0.00000104    0.00000326
     atom   24 type  1   force =    -0.00000006   -0.00000104    0.00000326
     atom   25 type  1   force =     0.00000000    0.00000036    0.00001865
     atom   26 type  1   force =    -0.00000000    0.00000035    0.00001642
     atom   27 type  1   force =     0.00000000   -0.00000063    0.00001776
     atom   28 type  1   force =    -0.00000000   -0.00000063    0.00001772
     atom   29 type  2   force =    -0.00000061   -0.00000395    0.00004046
     atom   30 type  2   force =     0.00000061   -0.00000395    0.00004046
     atom   31 type  1   force =    -0.00000063    0.00000603    0.00001639
     atom   32 type  1   force =     0.00000063    0.00000603    0.00001639
     atom   33 type  2   force =     0.00000000    0.00000401    0.00005083
     atom   34 type  2   force =    -0.00000000    0.00000408    0.00004943
     atom   35 type  1   force =    -0.00000060   -0.00000512    0.00001822
     atom   36 type  1   force =     0.00000060   -0.00000512    0.00001822
     atom   37 type  1   force =     0.00000000   -0.00000453    0.00000264
     atom   38 type  1   force =    -0.00000000   -0.00000455    0.00000249
     atom   39 type  1   force =     0.00000000    0.00000381    0.00000789
     atom   40 type  1   force =    -0.00000000    0.00000383    0.00000815
     atom   41 type  3   force =     0.00000000   -0.00000015   -0.00000128
     atom   42 type  3   force =     0.00000000   -0.00000016    0.00000095
     atom   43 type  3   force =    -0.00000000   -0.00000017   -0.00000131
     atom   44 type  3   force =     0.00000000   -0.00000017    0.00000097

     Total force =     0.081068     Total SCF correction =     0.000146

     BFGS Geometry Optimization
     Energy error            =      0.0E+00 Ry
     Gradient error          =      2.7E-02 Ry/Bohr

     number of scf cycles    =   1
     number of bfgs steps    =   0

     energy             new  =   -3432.7875864934 Ry

     new trust radius        =       0.0273116537 bohr
     new conv_thr            =       0.0000000010 Ry


ATOMIC_POSITIONS (crystal)
O             0.0000000000        0.5054458026        0.2733576743
O             0.5000000000        0.5054930849        0.2745789772
O             0.0000000000        0.0064030643        0.3037945873
O             0.5000000000        0.0064325680        0.3038380262
Ru            0.2499865828        0.0071393669        0.3589851411
Ru            0.7500134172        0.0071393669        0.3589851411
O             0.2503849603        0.3133350355        0.3585539157
O             0.7496150397        0.3133350355        0.3585539157
Ru            0.0000000000        0.5072063915        0.3515347372
Ru            0.5000000000        0.5071966392        0.3527862449
O             0.2503812200        0.7008754922        0.3582576871
O             0.7496187800        0.7008754922        0.3582576871
O             0.0000000000        0.0063031511        0.4118244074
O             0.5000000000        0.0062631219        0.4118844854
O             0.0000000000        0.5080933768        0.4418518229
O             0.5000000000        0.5080665354        0.4457636477
Ru            0.0000000000        0.0082283298        0.5000010000
Ru            0.5000000000        0.0082341607        0.5000010000
O             0.2490100839        0.1997572302        0.5000010000
O             0.7509899161        0.1997572302        0.5000010000
Ru            0.2461259431        0.5081585642        0.5000010000
Ru            0.7538740569        0.5081585642        0.5000010000
O             0.2489657445        0.8164051174        0.5000010000
O             0.7510342555        0.8164051174        0.5000010000
O             0.0000000000        0.5080933768        0.5581491771
O             0.5000000000        0.5080665354        0.5542373523
O             0.0000000000        0.0063031511        0.5881765926
O             0.5000000000        0.0062631219        0.5881165146
Ru            0.2499865828        0.0071393669        0.6410158589
Ru            0.7500134172        0.0071393669        0.6410158589
O             0.2503849603        0.3133350355        0.6414470843
O             0.7496150397        0.3133350355        0.6414470843
Ru            0.0000000000        0.5072063915        0.6484662628
Ru            0.5000000000        0.5071966392        0.6472147551
O             0.2503812200        0.7008754922        0.6417433129
O             0.7496187800        0.7008754922        0.6417433129
O             0.0000000000        0.0064030643        0.6962074127
O             0.5000000000        0.0064325680        0.6961639738
O             0.0000000000        0.5054458026        0.7266433257
O             0.5000000000        0.5054930849        0.7254220228
H             0.0000000000        0.0431823792        0.2609308617
H             0.0000000000        0.0431823792        0.7390691383
H             0.5000000000        0.0430949394        0.2609674173
H             0.5000000000        0.0430949394        0.7390325827



     Writing config-only to output data dir /storage/home/mgm6007/ixd4/Maria/Strain0_Files/RuO2-110-0-23/RuO2-110-0-23.save/
     NEW-OLD atomic charge density approx. for the potential

     Check: negative core charge=   -0.000001

     negative rho (up, down):  1.483E-04 0.000E+00

     add environment contribution to local potential
     Polarization accuracy = 2.6E-12, # of iterations =  42

     total cpu time spent up to now is    14596.7 secs

     per-process dynamical memory:   211.0 Mb

     Self-consistent Calculation

     iteration #  1     ecut=    50.00 Ry     beta= 0.70
     Davidson diagonalization with overlap
     ethr =  1.00E-06,  avg # of iterations =  4.0

     negative rho (up, down):  3.851E-04 0.000E+00

     add environment contribution to local potential
     Polarization accuracy = 4.2E-12, # of iterations =  42

     total cpu time spent up to now is    14903.3 secs

     total energy              =   -3432.79091277 Ry
     estimated scf accuracy    <       0.00766158 Ry
     electrostatic embedding   =      -0.08827638 Ry
     cavitation energy         =       0.02168938 Ry
     PV energy                 =      -0.08116043 Ry
     correction to one-el term =     180.45118097 Ry

     iteration #  2     ecut=    50.00 Ry     beta= 0.70
     Davidson diagonalization with overlap
     ethr =  2.10E-06,  avg # of iterations =  1.0

     negative rho (up, down):  3.669E-04 0.000E+00

     add environment contribution to local potential
     Polarization accuracy = 4.1E-12, # of iterations =  42

     total cpu time spent up to now is    15214.5 secs

     total energy              =   -3432.79095754 Ry
     estimated scf accuracy    <       0.02511981 Ry
     electrostatic embedding   =      -0.08911065 Ry
     cavitation energy         =       0.02169549 Ry
     PV energy                 =      -0.08112547 Ry
     correction to one-el term =     180.60258613 Ry

     iteration #  3     ecut=    50.00 Ry     beta= 0.70
     Davidson diagonalization with overlap
     ethr =  2.10E-06,  avg # of iterations =  1.0

     negative rho (up, down):  4.709E-04 0.000E+00

     add environment contribution to local potential
     Polarization accuracy = 4.3E-12, # of iterations =  42

     total cpu time spent up to now is    15529.1 secs

     total energy              =   -3432.79183469 Ry
     estimated scf accuracy    <       0.00047201 Ry
     electrostatic embedding   =      -0.08915210 Ry
     cavitation energy         =       0.02168881 Ry
     PV energy                 =      -0.08113817 Ry
     correction to one-el term =     180.54857964 Ry

     iteration #  4     ecut=    50.00 Ry     beta= 0.70
     Davidson diagonalization with overlap
     ethr =  1.30E-07,  avg # of iterations =  2.0

     negative rho (up, down):  5.538E-04 0.000E+00

     add environment contribution to local potential
     Polarization accuracy = 4.5E-12, # of iterations =  42

     total cpu time spent up to now is    15873.7 secs

     total energy              =   -3432.79184991 Ry
     estimated scf accuracy    <       0.00073393 Ry
     electrostatic embedding   =      -0.08956818 Ry
     cavitation energy         =       0.02168535 Ry
     PV energy                 =      -0.08114109 Ry
     correction to one-el term =     180.54744557 Ry

     iteration #  5     ecut=    50.00 Ry     beta= 0.70
     Davidson diagonalization with overlap
     ethr =  1.30E-07,  avg # of iterations =  1.0

     negative rho (up, down):  5.936E-04 0.000E+00

     add environment contribution to local potential
     Polarization accuracy = 4.5E-12, # of iterations =  42

     total cpu time spent up to now is    16188.9 secs

     total energy              =   -3432.79185833 Ry
     estimated scf accuracy    <       0.00012641 Ry
     electrostatic embedding   =      -0.08992742 Ry
     cavitation energy         =       0.02168381 Ry
     PV energy                 =      -0.08114098 Ry
     correction to one-el term =     180.55397817 Ry

     iteration #  6     ecut=    50.00 Ry     beta= 0.70
     Davidson diagonalization with overlap
     ethr =  3.47E-08,  avg # of iterations =  2.0

     negative rho (up, down):  5.635E-04 0.000E+00

     add environment contribution to local potential
     Polarization accuracy = 4.3E-12, # of iterations =  42

     total cpu time spent up to now is    16435.4 secs

     total energy              =   -3432.79186559 Ry
     estimated scf accuracy    <       0.00003791 Ry
     electrostatic embedding   =      -0.09034490 Ry
     cavitation energy         =       0.02168180 Ry
     PV energy                 =      -0.08114377 Ry
     correction to one-el term =     180.54217936 Ry

     iteration #  7     ecut=    50.00 Ry     beta= 0.70
     Davidson diagonalization with overlap
     ethr =  1.04E-08,  avg # of iterations =  5.0

     negative rho (up, down):  4.921E-04 0.000E+00

     add environment contribution to local potential
     Polarization accuracy = 4.1E-12, # of iterations =  42

     total cpu time spent up to now is    16750.9 secs

     total energy              =   -3432.79186653 Ry
     estimated scf accuracy    <       0.00001702 Ry
     electrostatic embedding   =      -0.09050327 Ry
     cavitation energy         =       0.02168138 Ry
     PV energy                 =      -0.08114645 Ry
     correction to one-el term =     180.52553759 Ry

     iteration #  8     ecut=    50.00 Ry     beta= 0.70
     Davidson diagonalization with overlap
     ethr =  4.68E-09,  avg # of iterations =  2.0

     negative rho (up, down):  3.725E-04 0.000E+00

     add environment contribution to local potential
     Polarization accuracy = 3.9E-12, # of iterations =  42

     total cpu time spent up to now is    17083.3 secs

     total energy              =   -3432.79186703 Ry
     estimated scf accuracy    <       0.00000460 Ry
     electrostatic embedding   =      -0.09076369 Ry
     cavitation energy         =       0.02168096 Ry
     PV energy                 =      -0.08114986 Ry
     correction to one-el term =     180.49769524 Ry

     iteration #  9     ecut=    50.00 Ry     beta= 0.70
     Davidson diagonalization with overlap
     ethr =  1.26E-09,  avg # of iterations =  3.0

     negative rho (up, down):  3.084E-04 0.000E+00

     add environment contribution to local potential
     Polarization accuracy = 3.9E-12, # of iterations =  42

     total cpu time spent up to now is    17406.2 secs

     total energy              =   -3432.79186778 Ry
     estimated scf accuracy    <       0.00000046 Ry
     electrostatic embedding   =      -0.09104374 Ry
     cavitation energy         =       0.02168100 Ry
     PV energy                 =      -0.08115313 Ry
     correction to one-el term =     180.46244535 Ry

     iteration # 10     ecut=    50.00 Ry     beta= 0.70
     Davidson diagonalization with overlap
     ethr =  1.26E-10,  avg # of iterations =  5.0

     negative rho (up, down):  2.655E-04 0.000E+00

     add environment contribution to local potential
     Polarization accuracy = 3.9E-12, # of iterations =  42

     total cpu time spent up to now is    17701.1 secs

     total energy              =   -3432.79186778 Ry
     estimated scf accuracy    <       0.00000029 Ry
     electrostatic embedding   =      -0.09112728 Ry
     cavitation energy         =       0.02168126 Ry
     PV energy                 =      -0.08115360 Ry
     correction to one-el term =     180.44907036 Ry

     iteration # 11     ecut=    50.00 Ry     beta= 0.70
     Davidson diagonalization with overlap
     ethr =  8.07E-11,  avg # of iterations =  2.0

     negative rho (up, down):  2.002E-04 0.000E+00

     add environment contribution to local potential
     Polarization accuracy = 3.8E-12, # of iterations =  42

     total cpu time spent up to now is    18001.7 secs

     total energy              =   -3432.79186777 Ry
     estimated scf accuracy    <       0.00000008 Ry
     electrostatic embedding   =      -0.09117808 Ry
     cavitation energy         =       0.02168144 Ry
     PV energy                 =      -0.08115381 Ry
     correction to one-el term =     180.44022430 Ry

     iteration # 12     ecut=    50.00 Ry     beta= 0.70
     Davidson diagonalization with overlap
     ethr =  2.32E-11,  avg # of iterations =  4.0

     negative rho (up, down):  1.761E-04 0.000E+00

     add environment contribution to local potential
     Polarization accuracy = 3.8E-12, # of iterations =  42

     total cpu time spent up to now is    18309.8 secs

     total energy              =   -3432.79186765 Ry
     estimated scf accuracy    <       0.00000007 Ry
     electrostatic embedding   =      -0.09124221 Ry
     cavitation energy         =       0.02168175 Ry
     PV energy                 =      -0.08115381 Ry
     correction to one-el term =     180.42738176 Ry

     iteration # 13     ecut=    50.00 Ry     beta= 0.70
     Davidson diagonalization with overlap
     ethr =  2.04E-11,  avg # of iterations =  2.0

     negative rho (up, down):  1.645E-04 0.000E+00

     add environment contribution to local potential
     Polarization accuracy = 3.9E-12, # of iterations =  42

     total cpu time spent up to now is    18581.3 secs

     total energy              =   -3432.79186760 Ry
     estimated scf accuracy    <       0.00000001 Ry
     electrostatic embedding   =      -0.09126404 Ry
     cavitation energy         =       0.02168186 Ry
     PV energy                 =      -0.08115378 Ry
     correction to one-el term =     180.42249803 Ry

     iteration # 14     ecut=    50.00 Ry     beta= 0.70
     Davidson diagonalization with overlap
     ethr =  3.25E-12,  avg # of iterations =  2.0

[...]
     atom   12 type  1   force =    -0.03030363    0.88355645  -61.52472821
     atom   13 type  1   force =    -0.00000000   -0.03715055  -37.01795897
     atom   14 type  1   force =    -0.00000000   -0.03448880  -36.97700246
     atom   15 type  1   force =     0.00000000    0.00042756  -27.24625418
     atom   16 type  1   force =     0.00000000   -0.00433758  -26.66934889
     atom   17 type  2   force =     0.00000000    0.13563860   -0.00045367
     atom   18 type  2   force =     0.00000000    0.13725298   -0.00045195
     atom   19 type  1   force =     0.16074021    2.03259807   -0.00007970
     atom   20 type  1   force =    -0.16074021    2.03259807   -0.00007970
     atom   21 type  2   force =    -0.18424213   -0.03388246   -0.00024974
     atom   22 type  2   force =     0.18424213   -0.03388246   -0.00024974
     atom   23 type  1   force =     0.15818111   -2.01894878   -0.00008015
     atom   24 type  1   force =    -0.15818111   -2.01894878   -0.00008015
     atom   25 type  1   force =     0.00000000    0.00042756   27.24610721
     atom   26 type  1   force =     0.00000000   -0.00433762   26.66915152
     atom   27 type  1   force =    -0.00000000   -0.03715310   37.01826784
     atom   28 type  1   force =    -0.00000000   -0.03449135   36.97731067
     atom   29 type  2   force =     0.05269866   -0.00035125  167.10022015
     atom   30 type  2   force =    -0.05269866   -0.00035125  167.10022015
     atom   31 type  1   force =     0.03230914   -0.87339303   61.26860220
     atom   32 type  1   force =    -0.03230914   -0.87339303   61.26860220
     atom   33 type  2   force =     0.00000000    0.02290909  171.02245164
     atom   34 type  2   force =     0.00000000    0.03514456  168.88653091
     atom   35 type  1   force =     0.03030468    0.88358257   61.52479255
     atom   36 type  1   force =    -0.03030468    0.88358257   61.52479255
     atom   37 type  1   force =    -0.00000000   -0.38170988   89.64943109
     atom   38 type  1   force =    -0.00000000   -0.45537835   89.65395806
     atom   39 type  1   force =     0.00000000    0.01260177   99.57135370
     atom   40 type  1   force =     0.00000000    0.00669227   99.58055333
     atom   41 type  3   force =    -0.00000000    0.31788907  -18.15093669
     atom   42 type  3   force =    -0.00000000    0.31794054   18.15130034
     atom   43 type  3   force =    -0.00000000    0.38140142  -18.14642550
     atom   44 type  3   force =    -0.00000000    0.38146276   18.14678678
     The local contribution  to forces
     atom    1 type  1   force =    -0.00000000    0.00581546   98.25179866
     atom    2 type  1   force =    -0.00000000    0.01290344   98.24245305
     atom    3 type  1   force =     0.00000000    0.14761083   90.69906596
     atom    4 type  1   force =     0.00000000    0.17667617   90.69789854
     atom    5 type  2   force =    -0.05292286   -0.01556323  167.13223941
     atom    6 type  2   force =     0.05292286   -0.01556323  167.13223941
     atom    7 type  1   force =    -0.03312164    0.84728082   61.36760640
     atom    8 type  1   force =     0.03312164    0.84728082   61.36760640
     atom    9 type  2   force =    -0.00000000   -0.00962044  171.00421581
     atom   10 type  2   force =     0.00000000   -0.02106481  168.85772469
     atom   11 type  1   force =    -0.03122311   -0.84995733   61.60248218
     atom   12 type  1   force =     0.03122311   -0.84995733   61.60248218
     atom   13 type  1   force =    -0.00000000    0.02349953   37.07000328
     atom   14 type  1   force =     0.00000000    0.02228022   37.02870045
     atom   15 type  1   force =     0.00000000    0.00260969   26.99446369
     atom   16 type  1   force =    -0.00000000    0.00743408   26.44598558
     atom   17 type  2   force =    -0.00000000   -0.13665670   -0.00581729
     atom   18 type  2   force =     0.00000000   -0.13843467   -0.00581051
     atom   19 type  1   force =    -0.14092308   -2.03091107   -0.00242786
     atom   20 type  1   force =     0.14092308   -2.03091107   -0.00242786
     atom   21 type  2   force =     0.16585491    0.03509121   -0.00599268
     atom   22 type  2   force =    -0.16585491    0.03509121   -0.00599268
     atom   23 type  1   force =    -0.13880468    2.01854009   -0.00242636
     atom   24 type  1   force =     0.13880468    2.01854009   -0.00242636
     atom   25 type  1   force =     0.00000000    0.00260816  -26.99622020
     atom   26 type  1   force =    -0.00000000    0.00743282  -26.44778835
     atom   27 type  1   force =     0.00000000    0.02349738  -37.07176097
     atom   28 type  1   force =     0.00000000    0.02227809  -37.03045815
     atom   29 type  2   force =    -0.05292295   -0.01556058 -167.13825341
     atom   30 type  2   force =     0.05292295   -0.01556058 -167.13825341
     atom   31 type  1   force =    -0.03312171    0.84732414  -61.37002894
     atom   32 type  1   force =     0.03312171    0.84732414  -61.37002894
     atom   33 type  2   force =    -0.00000000   -0.00962342 -171.00993975
     atom   34 type  2   force =     0.00000000   -0.02106815 -168.86348558
     atom   35 type  1   force =    -0.03122319   -0.85000050  -61.60490593
     atom   36 type  1   force =     0.03122319   -0.85000050  -61.60490593
     atom   37 type  1   force =    -0.00000000    0.14763328  -90.70274719
     atom   38 type  1   force =     0.00000000    0.17670277  -90.70158154
     atom   39 type  1   force =    -0.00000000    0.00581327  -98.25318054
     atom   40 type  1   force =     0.00000000    0.01290054  -98.24384559
     atom   41 type  3   force =     0.00000000   -0.31019031   18.09258315
     atom   42 type  3   force =    -0.00000000   -0.31019031  -18.09258315
     atom   43 type  3   force =     0.00000000   -0.37176861   18.08807466
     atom   44 type  3   force =     0.00000000   -0.37176861  -18.08807466
     The core correction contribution to forces
     atom    1 type  1   force =    -0.00000000    0.00000684   -0.01030868
     atom    2 type  1   force =    -0.00000000    0.00000020   -0.01061702
     atom    3 type  1   force =     0.00000000   -0.00219480    0.00926732
     atom    4 type  1   force =     0.00000000   -0.00262545    0.00921361
     atom    5 type  2   force =     0.00000000    0.00000000    0.00000000
     atom    6 type  2   force =     0.00000000    0.00000000    0.00000000
     atom    7 type  1   force =     0.00001015   -0.00102173    0.00112481
     atom    8 type  1   force =    -0.00001015   -0.00102173    0.00112481
     atom    9 type  2   force =     0.00000000    0.00000000    0.00000000
     atom   10 type  2   force =     0.00000000    0.00000000    0.00000000
     atom   11 type  1   force =     0.00000713    0.00107598    0.00097735
     atom   12 type  1   force =    -0.00000713    0.00107598    0.00097735
     atom   13 type  1   force =     0.00000000   -0.00014444    0.00037950
     atom   14 type  1   force =    -0.00000000   -0.00012531    0.00037853
     atom   15 type  1   force =     0.00000000    0.00002388   -0.00315487
     atom   16 type  1   force =    -0.00000000    0.00002732   -0.00245835
     atom   17 type  2   force =     0.00000000    0.00000000    0.00000000
     atom   18 type  2   force =     0.00000000    0.00000000    0.00000000
     atom   19 type  1   force =     0.00019098    0.00003225   -0.00000194
     atom   20 type  1   force =    -0.00019098    0.00003225   -0.00000194
     atom   21 type  2   force =     0.00000000    0.00000000    0.00000000
     atom   22 type  2   force =     0.00000000    0.00000000    0.00000000
     atom   23 type  1   force =     0.00018653   -0.00002087   -0.00000192
     atom   24 type  1   force =    -0.00018653   -0.00002087   -0.00000192
     atom   25 type  1   force =     0.00000000    0.00002388    0.00315286
     atom   26 type  1   force =     0.00000000    0.00002732    0.00245616
     atom   27 type  1   force =     0.00000000   -0.00014447   -0.00038161
     atom   28 type  1   force =    -0.00000000   -0.00012533   -0.00038064
     atom   29 type  2   force =     0.00000000    0.00000000    0.00000000
     atom   30 type  2   force =     0.00000000    0.00000000    0.00000000
     atom   31 type  1   force =     0.00001017   -0.00102162   -0.00112628
     atom   32 type  1   force =    -0.00001017   -0.00102162   -0.00112628
     atom   33 type  2   force =     0.00000000    0.00000000    0.00000000
     atom   34 type  2   force =     0.00000000    0.00000000    0.00000000
     atom   35 type  1   force =     0.00000714    0.00107589   -0.00097881
     atom   36 type  1   force =    -0.00000714    0.00107589   -0.00097881
     atom   37 type  1   force =     0.00000000   -0.00219520   -0.00927321
     atom   38 type  1   force =     0.00000000   -0.00262592   -0.00921949
     atom   39 type  1   force =     0.00000000    0.00000683    0.01030693
     atom   40 type  1   force =     0.00000000    0.00000020    0.01061505
     atom   41 type  3   force =     0.00000000    0.00000000    0.00000000
     atom   42 type  3   force =     0.00000000    0.00000000    0.00000000
     atom   43 type  3   force =     0.00000000    0.00000000    0.00000000
     atom   44 type  3   force =     0.00000000    0.00000000    0.00000000
     The Hubbard contrib.    to forces
     atom    1 type  1   force =     0.00000000    0.00000000    0.00000000
     atom    2 type  1   force =     0.00000000    0.00000000    0.00000000
     atom    3 type  1   force =     0.00000000    0.00000000    0.00000000
     atom    4 type  1   force =     0.00000000    0.00000000    0.00000000
     atom    5 type  2   force =     0.00000000    0.00000000    0.00000000
     atom    6 type  2   force =     0.00000000    0.00000000    0.00000000
     atom    7 type  1   force =     0.00000000    0.00000000    0.00000000
     atom    8 type  1   force =     0.00000000    0.00000000    0.00000000
     atom    9 type  2   force =     0.00000000    0.00000000    0.00000000
     atom   10 type  2   force =     0.00000000    0.00000000    0.00000000
     atom   11 type  1   force =     0.00000000    0.00000000    0.00000000
     atom   12 type  1   force =     0.00000000    0.00000000    0.00000000
     atom   13 type  1   force =     0.00000000    0.00000000    0.00000000
     atom   14 type  1   force =     0.00000000    0.00000000    0.00000000
     atom   15 type  1   force =     0.00000000    0.00000000    0.00000000
     atom   16 type  1   force =     0.00000000    0.00000000    0.00000000
     atom   17 type  2   force =     0.00000000    0.00000000    0.00000000
     atom   18 type  2   force =     0.00000000    0.00000000    0.00000000
     atom   19 type  1   force =     0.00000000    0.00000000    0.00000000
     atom   20 type  1   force =     0.00000000    0.00000000    0.00000000
     atom   21 type  2   force =     0.00000000    0.00000000    0.00000000
     atom   22 type  2   force =     0.00000000    0.00000000    0.00000000
     atom   23 type  1   force =     0.00000000    0.00000000    0.00000000
     atom   24 type  1   force =     0.00000000    0.00000000    0.00000000
     atom   25 type  1   force =     0.00000000    0.00000000    0.00000000
     atom   26 type  1   force =     0.00000000    0.00000000    0.00000000
     atom   27 type  1   force =     0.00000000    0.00000000    0.00000000
     atom   28 type  1   force =     0.00000000    0.00000000    0.00000000
     atom   29 type  2   force =     0.00000000    0.00000000    0.00000000
     atom   30 type  2   force =     0.00000000    0.00000000    0.00000000
     atom   31 type  1   force =     0.00000000    0.00000000    0.00000000
     atom   32 type  1   force =     0.00000000    0.00000000    0.00000000
     atom   33 type  2   force =     0.00000000    0.00000000    0.00000000
     atom   34 type  2   force =     0.00000000    0.00000000    0.00000000
     atom   35 type  1   force =     0.00000000    0.00000000    0.00000000
     atom   36 type  1   force =     0.00000000    0.00000000    0.00000000
     atom   37 type  1   force =     0.00000000    0.00000000    0.00000000
     atom   38 type  1   force =     0.00000000    0.00000000    0.00000000
     atom   39 type  1   force =     0.00000000    0.00000000    0.00000000
     atom   40 type  1   force =     0.00000000    0.00000000    0.00000000
     atom   41 type  3   force =     0.00000000    0.00000000    0.00000000
     atom   42 type  3   force =     0.00000000    0.00000000    0.00000000
     atom   43 type  3   force =     0.00000000    0.00000000    0.00000000
     atom   44 type  3   force =     0.00000000    0.00000000    0.00000000
     The SCF correction term to forces
     atom    1 type  1   force =    -0.00000000   -0.00000039   -0.00000041
     atom    2 type  1   force =    -0.00000000   -0.00000056   -0.00000020
     atom    3 type  1   force =    -0.00000000   -0.00000033   -0.00000037
     atom    4 type  1   force =    -0.00000000   -0.00000003   -0.00000053
     atom    5 type  2   force =    -0.00000056    0.00000026   -0.00000078
     atom    6 type  2   force =     0.00000056    0.00000026   -0.00000078
     atom    7 type  1   force =     0.00000010    0.00000088   -0.00000042
     atom    8 type  1   force =    -0.00000010    0.00000088   -0.00000042
     atom    9 type  2   force =     0.00000000   -0.00000059   -0.00000038
     atom   10 type  2   force =    -0.00000000   -0.00000088   -0.00000127
     atom   11 type  1   force =     0.00000001   -0.00000089   -0.00000024
     atom   12 type  1   force =    -0.00000001   -0.00000089   -0.00000024
     atom   13 type  1   force =     0.00000000   -0.00000001   -0.00000043
     atom   14 type  1   force =    -0.00000000    0.00000003   -0.00000160
     atom   15 type  1   force =     0.00000000    0.00000012    0.00000090
     atom   16 type  1   force =    -0.00000000    0.00000007    0.00000041
     atom   17 type  2   force =    -0.00000000   -0.00000064   -0.00000001
     atom   18 type  2   force =    -0.00000000   -0.00000053   -0.00000001
     atom   19 type  1   force =    -0.00000116    0.00000240   -0.00000000
     atom   20 type  1   force =     0.00000116    0.00000240   -0.00000000
     atom   21 type  2   force =    -0.00000114    0.00000049   -0.00000001
     atom   22 type  2   force =     0.00000114    0.00000049   -0.00000001
     atom   23 type  1   force =    -0.00000121   -0.00000253   -0.00000000
     atom   24 type  1   force =     0.00000121   -0.00000253   -0.00000000
     atom   25 type  1   force =    -0.00000000    0.00000012   -0.00000091
     atom   26 type  1   force =     0.00000000    0.00000007   -0.00000041
     atom   27 type  1   force =     0.00000000   -0.00000001    0.00000043
     atom   28 type  1   force =    -0.00000000    0.00000003    0.00000160
     atom   29 type  2   force =    -0.00000056    0.00000026    0.00000078
     atom   30 type  2   force =     0.00000056    0.00000026    0.00000078
     atom   31 type  1   force =     0.00000010    0.00000088    0.00000042
     atom   32 type  1   force =    -0.00000010    0.00000088    0.00000042
     atom   33 type  2   force =    -0.00000000   -0.00000059    0.00000038
     atom   34 type  2   force =     0.00000000   -0.00000088    0.00000127
     atom   35 type  1   force =     0.00000001   -0.00000089    0.00000023
     atom   36 type  1   force =    -0.00000001   -0.00000089    0.00000023
     atom   37 type  1   force =     0.00000000   -0.00000033    0.00000037
     atom   38 type  1   force =     0.00000000   -0.00000003    0.00000053
     atom   39 type  1   force =     0.00000000   -0.00000039    0.00000041
     atom   40 type  1   force =     0.00000000   -0.00000056    0.00000020
     atom   41 type  3   force =    -0.00000000    0.00000001   -0.00000013
     atom   42 type  3   force =     0.00000000    0.00000001    0.00000013
     atom   43 type  3   force =    -0.00000000    0.00000004   -0.00000014
     atom   44 type  3   force =     0.00000000    0.00000004    0.00000014

     Total force =     0.000617     Total SCF correction =     0.000008
     Energy error            =      9.9E-07 Ry
     Gradient error          =      1.5E-04 Ry/Bohr

     number of scf cycles    =  51
     number of bfgs steps    =  49

     energy             old  =   -3432.7937934214 Ry
     energy             new  =   -3432.7937944113 Ry

     CASE: energy            _new < energy            _old

     new trust radius        =       0.0028669303 bohr
     new conv_thr            =            1.0E-11 Ry


ATOMIC_POSITIONS (crystal)
O             0.0000000000        0.5076880492        0.2724950752
O             0.5000000000        0.5074164978        0.2734747533
O             0.0000000000        0.0080762339        0.3036441864
O             0.5000000000        0.0079190197        0.3036705422
Ru            0.2499779444        0.0085357397        0.3587766259
Ru            0.7500220556        0.0085357397        0.3587766259
O             0.2502899106        0.3159386185        0.3582107460
O             0.7497100894        0.3159386185        0.3582107460
Ru            0.0000000000        0.5085867967        0.3506405939
Ru            0.5000000000        0.5086250798        0.3515842887
O             0.2503165747        0.7012228932        0.3579300302
O             0.7496834253        0.7012228932        0.3579300302
O             0.0000000000        0.0082784071        0.4116275433
O             0.5000000000        0.0083276966        0.4116374516
O             0.0000000000        0.5098544071        0.4420197560
O             0.5000000000        0.5098395723        0.4455870012
Ru            0.0000000000        0.0101034562        0.5000010000
Ru            0.5000000000        0.0100853475        0.5000010000
O             0.2495045653        0.1995859397        0.5000010000
O             0.7504954347        0.1995859397        0.5000010000
Ru            0.2464703070        0.5101041477        0.5000010000
Ru            0.7535296930        0.5101041477        0.5000010000
O             0.2495275142        0.8204809935        0.5000010000
O             0.7504724858        0.8204809935        0.5000010000
O             0.0000000000        0.5098544071        0.5579812440
O             0.5000000000        0.5098395723        0.5544139988
O             0.0000000000        0.0082784071        0.5883734567
O             0.5000000000        0.0083276966        0.5883635484
Ru            0.2499779444        0.0085357397        0.6412243741
Ru            0.7500220556        0.0085357397        0.6412243741
O             0.2502899106        0.3159386185        0.6417902540
O             0.7497100894        0.3159386185        0.6417902540
Ru            0.0000000000        0.5085867967        0.6493604061
Ru            0.5000000000        0.5086250798        0.6484167113
O             0.2503165747        0.7012228932        0.6420709698
O             0.7496834253        0.7012228932        0.6420709698
O             0.0000000000        0.0080762339        0.6963578136
O             0.5000000000        0.0079190197        0.6963314578
O             0.0000000000        0.5076880492        0.7275059248
O             0.5000000000        0.5074164978        0.7265262467
H             0.0000000000        0.0244986679        0.2598649600
H             0.0000000000        0.0244986679        0.7401350400
H             0.5000000000        0.0276625865        0.2600033031
H             0.5000000000        0.0276625865        0.7399966969



     Writing config-only to output data dir /storage/home/mgm6007/ixd4/Maria/Strain0_Files/RuO2-110-0-23/RuO2-110-0-23.save/
     NEW-OLD atomic charge density approx. for the potential

     Check: negative core charge=   -0.000001

     negative rho (up, down):  1.466E-04 0.000E+00

     add environment contribution to local potential
     Polarization accuracy = 4.1E-12, # of iterations =  42
