
     Program PWSCF v.7.2 starts on 19Jul2023 at 22: 0:24 
        Git branch: heads/qe-7.2
        Last git commit: b4c5e8deeb7d1863e7553a87b45f8d22c21926a5
        Last git commit date: Mon Mar 27 16:12:09 2023 +0000
        Last git commit subject: Merge branch 'merge_fix_hubbard' into 'develop'

     This program is part of the open-source Quantum ESPRESSO suite
     for quantum simulation of materials; please cite
         "P. Giannozzi et al., J. Phys.:Condens. Matter 21 395502 (2009);
         "P. Giannozzi et al., J. Phys.:Condens. Matter 29 465901 (2017);
         "P. Giannozzi et al., J. Chem. Phys. 152 154105 (2020);
          URL http://www.quantum-espresso.org", 
     in publications or presentations arising from this work. More details at
     http://www.quantum-espresso.org/quote

     Parallel version (MPI), running on    20 processors

     MPI processes distributed on     1 nodes
     102111 MiB available memory on the printing compute node when the environment starts
 
     Reading input from RuO2-110-0-0124.in

     Current dimensions of program PWSCF are:
     Max number of different atomic species (ntypx) = 10
     Max number of k-points (npk) =  40000
     Max angular momentum in pseudopotentials (lmaxx) =  4
 
     Reading input from environ.in:
     * Environ restarting
     * setting up water environment
     * using electronic solvent mode
     * setting boundary derivatives method to SCCS default
     
     file O.pbe-n-kjpaw_psl.0.1.UPF: wavefunction(s)  2P renormalized
     Message from routine setup:
     using ibrav=0 with symmetry is DISCOURAGED, use correct ibrav instead
 
     R & G space division:  proc/nbgrp/npool/nimage =      20
     Subspace diagonalization in iterative solution of the eigenvalue problem:
     one sub-group per band group will be used
     scalapack distributed-memory algorithm (size of sub-group:  2*  2 procs)

 
     Parallelization info
     --------------------
     sticks:   dense  smooth     PW     G-vecs:    dense   smooth      PW
     Min         282     113     29                56190    14217    1913
     Max         283     114     30                56201    14227    1932
     Sum        5657    2263    593              1123933   284439   38425
 
     Using Slab Decomposition
 


     bravais-lattice index     =            0
     lattice parameter (alat)  =      12.1041  a.u.
     unit-cell volume          =    5954.5483 (a.u.)^3
     number of atoms/cell      =           48
     number of atomic types    =            3
     number of electrons       =       368.00
     number of Kohn-Sham states=          221
     kinetic-energy cutoff     =      50.0000  Ry
     charge density cutoff     =     500.0000  Ry
     scf convergence threshold =      1.0E-09
     mixing beta               =       0.7000
     number of iterations used =            8  local-TF  mixing
     energy convergence thresh.=      1.0E-04
     force convergence thresh. =      1.0E-04
     Exchange-correlation= PBE
                           (   1   4   3   4   0   0   0)
     nstep                     =          200


     ================================================================================
 
                                  Environ Setup Summary

     ================================================================================
 
     Please cite

          O. Andreussi, I. Dabo and N. Marzari, J. Chem. Phys. 136, 064102 (2012)

     in publications or presentations arising from this work.

     ================================================================================
 
     Parameters
     ==========

     compensation onset threshold      =               0.1000E+00
     static permittivity               =                    78.30
     surface tension in input (dyn/cm) =                    47.90
     surface tension in internal units =               0.6153E-04
     external pressure in input (GPa)  =                    -0.36
     external pressure in inter. units =              -0.2447E-04

     Solvent Boundary
     ================

     solvent mode                      =               electronic
     derivatives method                =                    chain
     numerical core for derivatives    =                      fft
     switching function adopted        =                     SCCS
     density limit for vacuum region   =               0.5000E-02
     density limit for bulk solvent    =               0.1000E-03

     Electrostatic Setup
     ===================

     electrostatic problem to solve    =              generalized
     numerical solver adopted          =                       cg
     type of auxiliary density adopted =                     none
     numerical core for poisson        =                      fft
     type of pbc corrections           =                parabolic
     numerical core for corrections    =                      1da

     ================================================================================
 

     celldm(1)=  12.104053  celldm(2)=   0.000000  celldm(3)=   0.000000
     celldm(4)=   0.000000  celldm(5)=   0.000000  celldm(6)=   0.000000

     crystal axes: (cart. coord. in units of alat)
               a(1) = (   1.000000   0.000000   0.000000 )  
               a(2) = (   0.000000   0.971735   0.000000 )  
               a(3) = (   0.000000   0.000000   3.455479 )  

     reciprocal axes: (cart. coord. in units 2 pi/alat)
               b(1) = (  1.000000  0.000000  0.000000 )  
               b(2) = (  0.000000  1.029087  0.000000 )  
               b(3) = (  0.000000  0.000000  0.289395 )  


     PseudoPot. # 1 for O  read from file:
     /gpfs/group/ixd4/default/Simon/pseudopotentials/materialscloud/SSSP_1.3.0_PBE_efficiency/O.pbe-n-kjpaw_psl.0.1.UPF
     MD5 check sum: 0234752ac141de4415c5fc33072bef88
     Pseudo is Projector augmented-wave + core cor, Zval =  6.0
     Generated using "atomic" code by A. Dal Corso  v.5.0.99 svn rev. 10869
     Shape of augmentation charge: BESSEL
     Using radial grid of 1095 points,  4 beta functions with: 
                l(1) =   0
                l(2) =   0
                l(3) =   1
                l(4) =   1
     Q(r) pseudized with 0 coefficients 


     PseudoPot. # 2 for Ru read from file:
     /gpfs/group/ixd4/default/Simon/pseudopotentials/materialscloud/SSSP_1.3.0_PBE_efficiency/Ru_ONCV_PBE-1.0.oncvpsp.upf
     MD5 check sum: be037bb81c227cfb9b1461a9f099f4bd
     Pseudo is Norm-conserving, Zval = 16.0
     Generated using ONCVPSP code by D. R. Hamann
     Using radial grid of 1458 points,  6 beta functions with: 
                l(1) =   0
                l(2) =   0
                l(3) =   1
                l(4) =   1
                l(5) =   2
                l(6) =   2

     PseudoPot. # 3 for H  read from file:
     /gpfs/group/ixd4/default/Simon/pseudopotentials/materialscloud/SSSP_1.3.0_PBE_efficiency/H.pbe-rrkjus_psl.1.0.0.UPF
     MD5 check sum: f52b6d4d1c606e5624b1dc7b2218f220
     Pseudo is Ultrasoft, Zval =  1.0
     Generated using "atomic" code by A. Dal Corso  v.5.1
     Using radial grid of  929 points,  2 beta functions with: 
                l(1) =   0
                l(2) =   0
     Q(r) pseudized with 0 coefficients 


     atomic species   valence    mass     pseudopotential
        O              6.00    15.99940     O ( 1.00)
        Ru            16.00   101.07000     Ru( 1.00)
        H              1.00     1.00794     H ( 1.00)

      4 Sym. Ops. (no inversion) found



   Cartesian axes

     site n.     atom                  positions (alat units)
         1           O   tau(   1) = (  -0.0037130   0.4858677   0.9285449  )
         2           O   tau(   2) = (   0.4958301   0.4858677   0.9227111  )
         3           O   tau(   3) = (  -0.0029101   0.0000000   0.9964005  )
         4           O   tau(   4) = (   0.4983427   0.0000000   1.0633285  )
         5           Ru  tau(   5) = (   0.2561548   0.0000000   1.2342427  )
         6           Ru  tau(   6) = (   0.7401229   0.0000000   1.2345863  )
         7           O   tau(   7) = (   0.2471641   0.2982831   1.2316580  )
         8           O   tau(   8) = (   0.7493781   0.2978884   1.2315499  )
         9           Ru  tau(   9) = (  -0.0021851   0.4858677   1.2405363  )
        10           Ru  tau(  10) = (   0.4983876   0.4858677   1.2279097  )
        11           O   tau(  11) = (   0.2471641   0.6734522   1.2316580  )
        12           O   tau(  12) = (   0.7493781   0.6738470   1.2315499  )
        13           O   tau(  13) = (  -0.0011417   0.0000000   1.4215529  )
        14           O   tau(  14) = (   0.4977025   0.0000000   1.4244320  )
        15           O   tau(  15) = (  -0.0014921   0.4858677   1.5414270  )
        16           O   tau(  16) = (   0.4987476   0.4858677   1.5274632  )
        17           Ru  tau(  17) = (  -0.0005083   0.0000000   1.7277432  )
        18           Ru  tau(  18) = (   0.4965521   0.0000000   1.7277432  )
        19           O   tau(  19) = (   0.2476834   0.1897971   1.7277432  )
        20           O   tau(  20) = (   0.7488218   0.1862930   1.7277432  )
        21           Ru  tau(  21) = (   0.2528314   0.4858677   1.7277432  )
        22           Ru  tau(  22) = (   0.7431848   0.4858677   1.7277432  )
        23           O   tau(  23) = (   0.2476834   0.7819392   1.7277432  )
        24           O   tau(  24) = (   0.7488218   0.7854434   1.7277432  )
        25           O   tau(  25) = (  -0.0014921   0.4858677   1.9140559  )
        26           O   tau(  26) = (   0.4987476   0.4858677   1.9280198  )
        27           O   tau(  27) = (  -0.0011417   0.0000000   2.0339300  )
        28           O   tau(  28) = (   0.4977025   0.0000000   2.0310510  )
        29           Ru  tau(  29) = (   0.2561548   0.0000000   2.2212402  )
        30           Ru  tau(  30) = (   0.7401229   0.0000000   2.2208967  )
        31           O   tau(  31) = (   0.2471641   0.2982831   2.2238249  )
        32           O   tau(  32) = (   0.7493781   0.2978884   2.2239331  )
        33           Ru  tau(  33) = (  -0.0021851   0.4858677   2.2149466  )
        34           Ru  tau(  34) = (   0.4983876   0.4858677   2.2275732  )
        35           O   tau(  35) = (   0.2471641   0.6734522   2.2238249  )
        36           O   tau(  36) = (   0.7493781   0.6738470   2.2239331  )
        37           O   tau(  37) = (  -0.0029101   0.0000000   2.4590859  )
        38           O   tau(  38) = (   0.4983427   0.0000000   2.3921579  )
        39           O   tau(  39) = (  -0.0037130   0.4858677   2.5269380  )
        40           O   tau(  40) = (   0.4958301   0.4858677   2.5327719  )
        41           H   tau(  41) = (   0.1429733   0.4858677   0.8831209  )
        42           H   tau(  42) = (   0.1429733   0.4858677   2.5723586  )
        43           H   tau(  43) = (   0.6417831   0.4858677   0.8747647  )
        44           H   tau(  44) = (   0.6417831   0.4858677   2.5807148  )
        45           H   tau(  45) = (  -0.0044760   0.1172600   0.9049006  )
        46           H   tau(  46) = (  -0.0044760   0.1172600   2.5505789  )
        47           H   tau(  47) = (  -0.0044760   0.8544754   0.9049006  )
        48           H   tau(  48) = (  -0.0044760   0.8544754   2.5505789  )

     number of k points=     1  Marzari-Vanderbilt smearing, width (Ry)=  0.0300
                       cart. coord. in units 2pi/alat
        k(    1) = (   0.2500000   0.2572717   0.0000000), wk =   2.0000000

     Dense  grid:  1123933 G-vectors     FFT dimensions: (  90,  90, 300)

     Smooth grid:   284439 G-vectors     FFT dimensions: (  60,  54, 192)

     Estimated max dynamical RAM per process >     173.06 MB

     Estimated total dynamical RAM >       3.38 GB

     Check: negative core charge=   -0.000001

     Initial potential from superposition of free atoms

     starting charge     367.9933, renormalised to     368.0000

     add environment contribution to local potential
     Polarization accuracy = 9.0E-12, # of iterations =  23

     negative rho (up, down):  2.633E-05 0.000E+00
     Starting wfcs are  240 randomized atomic wfcs
     Checking if some PAW data can be deallocated... 

     total cpu time spent up to now is     1113.7 secs

     per-process dynamical memory:   145.5 Mb

     Self-consistent Calculation

     iteration #  1     ecut=    50.00 Ry     beta= 0.70
     Davidson diagonalization with overlap
     ethr =  1.00E-02,  avg # of iterations =  2.0

     negative rho (up, down):  3.776E-08 0.000E+00

     total cpu time spent up to now is     1482.9 secs

     total energy              =   -3435.58883150 Ry
     estimated scf accuracy    <       9.17946559 Ry
     electrostatic embedding   =      -0.00184224 Ry
     cavitation energy         =       0.01980200 Ry
     PV energy                 =      -0.08768302 Ry
     correction to one-el term =     218.73714300 Ry

     iteration #  2     ecut=    50.00 Ry     beta= 0.70
     Davidson diagonalization with overlap
     ethr =  2.49E-03,  avg # of iterations =  2.0

     total cpu time spent up to now is     1860.8 secs

     total energy              =   -3437.59295477 Ry
     estimated scf accuracy    <       1.75452532 Ry
     electrostatic embedding   =      -0.00296738 Ry
     cavitation energy         =       0.01971518 Ry
     PV energy                 =      -0.08865637 Ry
     correction to one-el term =     218.74061133 Ry

     iteration #  3     ecut=    50.00 Ry     beta= 0.70
     Davidson diagonalization with overlap
     ethr =  4.77E-04,  avg # of iterations =  5.0

     total cpu time spent up to now is     2161.7 secs

     total energy              =   -3437.74155769 Ry
     estimated scf accuracy    <       0.44719932 Ry
     electrostatic embedding   =      -0.00339531 Ry
     cavitation energy         =       0.01977745 Ry
     PV energy                 =      -0.08871919 Ry
     correction to one-el term =     218.74168549 Ry

     iteration #  4     ecut=    50.00 Ry     beta= 0.70
     Davidson diagonalization with overlap
     ethr =  1.22E-04,  avg # of iterations =  1.0

     total cpu time spent up to now is     2511.9 secs

     total energy              =   -3437.72708524 Ry
     estimated scf accuracy    <       0.29627188 Ry
     electrostatic embedding   =      -0.00362301 Ry
     cavitation energy         =       0.01994478 Ry
     PV energy                 =      -0.08833729 Ry
     correction to one-el term =     218.74201342 Ry

     iteration #  5     ecut=    50.00 Ry     beta= 0.70
     Davidson diagonalization with overlap
     ethr =  8.05E-05,  avg # of iterations =  2.0

     total cpu time spent up to now is     2905.7 secs

     total energy              =   -3437.72782808 Ry
     estimated scf accuracy    <       0.26319702 Ry
     electrostatic embedding   =      -0.00384555 Ry
     cavitation energy         =       0.02043350 Ry
     PV energy                 =      -0.08738020 Ry
     correction to one-el term =     218.74208038 Ry

     iteration #  6     ecut=    50.00 Ry     beta= 0.70
     Davidson diagonalization with overlap
     ethr =  7.15E-05,  avg # of iterations =  1.0

     total cpu time spent up to now is     3257.2 secs

     total energy              =   -3437.72134206 Ry
     estimated scf accuracy    <       0.11359487 Ry
     electrostatic embedding   =      -0.00388865 Ry
     cavitation energy         =       0.02082986 Ry
     PV energy                 =      -0.08645832 Ry
     correction to one-el term =     218.74181021 Ry

     iteration #  7     ecut=    50.00 Ry     beta= 0.70
     Davidson diagonalization with overlap
     ethr =  3.09E-05,  avg # of iterations = 10.0

     add environment contribution to local potential
     Polarization accuracy = 9.1E-12, # of iterations =  40

     total cpu time spent up to now is     3549.8 secs

     total energy              =   -3437.71237532 Ry
     estimated scf accuracy    <       0.06452949 Ry
     electrostatic embedding   =      -0.00374604 Ry
     cavitation energy         =       0.02128072 Ry
     PV energy                 =      -0.08512842 Ry
     correction to one-el term =     218.74093179 Ry

     iteration #  8     ecut=    50.00 Ry     beta= 0.70
     Davidson diagonalization with overlap
     ethr =  1.75E-05,  avg # of iterations =  7.0

     total cpu time spent up to now is     3913.8 secs

     total energy              =   -3437.76649702 Ry
     estimated scf accuracy    <       0.12110591 Ry
     electrostatic embedding   =      -0.06576105 Ry
     cavitation energy         =       0.02166427 Ry
     PV energy                 =      -0.08387726 Ry
     correction to one-el term =     175.43985601 Ry

     iteration #  9     ecut=    50.00 Ry     beta= 0.70
     Davidson diagonalization with overlap
     ethr =  1.75E-05,  avg # of iterations =  1.0

     add environment contribution to local potential
     Polarization accuracy = 5.0E-12, # of iterations =  45

     total cpu time spent up to now is     4260.4 secs

     total energy              =   -3437.75923802 Ry
     estimated scf accuracy    <       0.03880341 Ry
     electrostatic embedding   =      -0.06634645 Ry
     cavitation energy         =       0.02168168 Ry
     PV energy                 =      -0.08373763 Ry
     correction to one-el term =     175.44200172 Ry

     iteration # 10     ecut=    50.00 Ry     beta= 0.70
     Davidson diagonalization with overlap
     ethr =  1.05E-05,  avg # of iterations =  2.0

     negative rho (up, down):  1.497E-04 0.000E+00

     add environment contribution to local potential
     Polarization accuracy = 4.1E-12, # of iterations =  47

     total cpu time spent up to now is     4618.0 secs

     total energy              =   -3437.76327522 Ry
     estimated scf accuracy    <       0.01891380 Ry
     electrostatic embedding   =      -0.07853083 Ry
     cavitation energy         =       0.02181550 Ry
     PV energy                 =      -0.08327004 Ry
     correction to one-el term =     173.55838492 Ry

     iteration # 11     ecut=    50.00 Ry     beta= 0.70
     Davidson diagonalization with overlap
     ethr =  5.14E-06,  avg # of iterations =  5.0

     negative rho (up, down):  2.923E-04 0.000E+00

     add environment contribution to local potential
     Polarization accuracy = 4.3E-12, # of iterations =  46

     total cpu time spent up to now is     4954.3 secs

     total energy              =   -3437.76675839 Ry
     estimated scf accuracy    <       0.00890016 Ry
     electrostatic embedding   =      -0.08945890 Ry
     cavitation energy         =       0.02175134 Ry
     PV energy                 =      -0.08308397 Ry
     correction to one-el term =     173.33601306 Ry

     iteration # 12     ecut=    50.00 Ry     beta= 0.70
     Davidson diagonalization with overlap
     ethr =  2.42E-06,  avg # of iterations =  5.0

     negative rho (up, down):  2.652E-04 0.000E+00

     add environment contribution to local potential
     Polarization accuracy = 4.5E-12, # of iterations =  45

     total cpu time spent up to now is     5219.2 secs

     total energy              =   -3437.76784555 Ry
     estimated scf accuracy    <       0.00573613 Ry
     electrostatic embedding   =      -0.09065114 Ry
     cavitation energy         =       0.02157745 Ry
     PV energy                 =      -0.08323511 Ry
     correction to one-el term =     174.48581256 Ry

     iteration # 13     ecut=    50.00 Ry     beta= 0.70
     Davidson diagonalization with overlap
     ethr =  1.56E-06,  avg # of iterations =  2.0

     negative rho (up, down):  4.913E-05 0.000E+00

     add environment contribution to local potential
     Polarization accuracy = 3.5E-12, # of iterations =  44

     total cpu time spent up to now is     5504.6 secs

     total energy              =   -3437.76868946 Ry
     estimated scf accuracy    <       0.00412109 Ry
     electrostatic embedding   =      -0.09380262 Ry
     cavitation energy         =       0.02150853 Ry
     PV energy                 =      -0.08328951 Ry
     correction to one-el term =     174.93736370 Ry

     iteration # 14     ecut=    50.00 Ry     beta= 0.70
     Davidson diagonalization with overlap
     ethr =  1.12E-06,  avg # of iterations =  6.0

     negative rho (up, down):  3.308E-08 0.000E+00

     add environment contribution to local potential
     Polarization accuracy = 3.0E-12, # of iterations =  44

     total cpu time spent up to now is     5806.5 secs

     total energy              =   -3437.76954504 Ry
     estimated scf accuracy    <       0.00290935 Ry
     electrostatic embedding   =      -0.09312840 Ry
     cavitation energy         =       0.02134407 Ry
     PV energy                 =      -0.08349443 Ry
     correction to one-el term =     176.32123743 Ry

     iteration # 15     ecut=    50.00 Ry     beta= 0.70
     Davidson diagonalization with overlap
     ethr =  7.91E-07,  avg # of iterations =  7.0

     negative rho (up, down):  3.678E-05 0.000E+00

     add environment contribution to local potential
     Polarization accuracy = 9.7E-12, # of iterations =  42

     total cpu time spent up to now is     6125.9 secs

     total energy              =   -3437.77022301 Ry
     estimated scf accuracy    <       0.00171980 Ry
     electrostatic embedding   =      -0.09071446 Ry
     cavitation energy         =       0.02124051 Ry
     PV energy                 =      -0.08367505 Ry
     correction to one-el term =     177.63038883 Ry

     iteration # 16     ecut=    50.00 Ry     beta= 0.70
     Davidson diagonalization with overlap
     ethr =  4.67E-07,  avg # of iterations =  7.0

     negative rho (up, down):  1.731E-08 0.000E+00

     add environment contribution to local potential
     Polarization accuracy = 1.4E-12, # of iterations =  43

     total cpu time spent up to now is     6395.6 secs

     total energy              =   -3437.77057371 Ry
     estimated scf accuracy    <       0.00080829 Ry
     electrostatic embedding   =      -0.08792465 Ry
     cavitation energy         =       0.02115404 Ry
     PV energy                 =      -0.08383041 Ry
     correction to one-el term =     179.02196504 Ry

     iteration # 17     ecut=    50.00 Ry     beta= 0.70
     Davidson diagonalization with overlap
     ethr =  2.20E-07,  avg # of iterations =  2.0

     negative rho (up, down):  2.320E-03 0.000E+00

     add environment contribution to local potential
     Polarization accuracy = 9.8E-12, # of iterations =  42

     total cpu time spent up to now is     6741.1 secs

     total energy              =   -3437.77078726 Ry
     estimated scf accuracy    <       0.00075770 Ry
     electrostatic embedding   =      -0.08488252 Ry
     cavitation energy         =       0.02116841 Ry
     PV energy                 =      -0.08383712 Ry
     correction to one-el term =     179.34061202 Ry

     iteration # 18     ecut=    50.00 Ry     beta= 0.70
     Davidson diagonalization with overlap
     ethr =  2.06E-07,  avg # of iterations =  6.0

     negative rho (up, down):  3.980E-05 0.000E+00

     add environment contribution to local potential
     Polarization accuracy = 1.7E-12, # of iterations =  43

     total cpu time spent up to now is     7099.4 secs

     total energy              =   -3437.77087718 Ry
     estimated scf accuracy    <       0.00015481 Ry
     electrostatic embedding   =      -0.08327443 Ry
     cavitation energy         =       0.02115866 Ry
     PV energy                 =      -0.08384894 Ry
     correction to one-el term =     179.82516184 Ry

     iteration # 19     ecut=    50.00 Ry     beta= 0.70
     Davidson diagonalization with overlap
     ethr =  4.21E-08,  avg # of iterations =  6.0

     negative rho (up, down):  7.806E-04 0.000E+00

     add environment contribution to local potential
     Polarization accuracy = 1.7E-12, # of iterations =  43

     total cpu time spent up to now is     7466.7 secs

     total energy              =   -3437.77090542 Ry
     estimated scf accuracy    <       0.00010696 Ry
     electrostatic embedding   =      -0.08288986 Ry
     cavitation energy         =       0.02119100 Ry
     PV energy                 =      -0.08376637 Ry
     correction to one-el term =     179.71132215 Ry

     iteration # 20     ecut=    50.00 Ry     beta= 0.70
     Davidson diagonalization with overlap
     ethr =  2.91E-08,  avg # of iterations =  2.0

     negative rho (up, down):  6.137E-04 0.000E+00

     add environment contribution to local potential
     Polarization accuracy = 2.3E-12, # of iterations =  43

     total cpu time spent up to now is     7809.9 secs

     total energy              =   -3437.77094200 Ry
     estimated scf accuracy    <       0.00008195 Ry
     electrostatic embedding   =      -0.08140901 Ry
     cavitation energy         =       0.02119211 Ry
     PV energy                 =      -0.08376937 Ry
     correction to one-el term =     179.90889767 Ry

     iteration # 21     ecut=    50.00 Ry     beta= 0.70
     Davidson diagonalization with overlap
     ethr =  2.23E-08,  avg # of iterations =  2.0

     negative rho (up, down):  5.051E-05 0.000E+00

     add environment contribution to local potential
     Polarization accuracy = 2.5E-12, # of iterations =  43

     total cpu time spent up to now is     8163.5 secs

     total energy              =   -3437.77096158 Ry
     estimated scf accuracy    <       0.00001094 Ry
     electrostatic embedding   =      -0.08034803 Ry
     cavitation energy         =       0.02120234 Ry
     PV energy                 =      -0.08373984 Ry
     correction to one-el term =     179.99858605 Ry

     iteration # 22     ecut=    50.00 Ry     beta= 0.70
     Davidson diagonalization with overlap
     ethr =  2.97E-09,  avg # of iterations =  2.0

     negative rho (up, down):  1.558E-04 0.000E+00

     add environment contribution to local potential
     Polarization accuracy = 6.6E-12, # of iterations =  42

     total cpu time spent up to now is     8357.9 secs

     total energy              =   -3437.77096287 Ry
     estimated scf accuracy    <       0.00000485 Ry
     electrostatic embedding   =      -0.08028998 Ry
     cavitation energy         =       0.02120002 Ry
     PV energy                 =      -0.08373549 Ry
     correction to one-el term =     179.96272178 Ry

     iteration # 23     ecut=    50.00 Ry     beta= 0.70
     Davidson diagonalization with overlap
     ethr =  1.32E-09,  avg # of iterations =  2.0

     negative rho (up, down):  1.484E-04 0.000E+00

     add environment contribution to local potential
     Polarization accuracy = 2.4E-12, # of iterations =  43

     total cpu time spent up to now is     8728.2 secs

     total energy              =   -3437.77096456 Ry
     estimated scf accuracy    <       0.00000091 Ry
     electrostatic embedding   =      -0.08013704 Ry
     cavitation energy         =       0.02119497 Ry
     PV energy                 =      -0.08373764 Ry
     correction to one-el term =     179.99589481 Ry

     iteration # 24     ecut=    50.00 Ry     beta= 0.70
     Davidson diagonalization with overlap
     ethr =  2.47E-10,  avg # of iterations =  4.0

     negative rho (up, down):  2.119E-04 0.000E+00

     add environment contribution to local potential
     Polarization accuracy = 5.1E-12, # of iterations =  42

     total cpu time spent up to now is     9039.6 secs

     total energy              =   -3437.77096548 Ry
     estimated scf accuracy    <       0.00000042 Ry
     electrostatic embedding   =      -0.08001136 Ry
     cavitation energy         =       0.02119313 Ry
     PV energy                 =      -0.08373929 Ry
     correction to one-el term =     180.00678265 Ry

     iteration # 25     ecut=    50.00 Ry     beta= 0.70
     Davidson diagonalization with overlap
     ethr =  1.14E-10,  avg # of iterations =  2.0

     negative rho (up, down):  1.878E-04 0.000E+00

     add environment contribution to local potential
     Polarization accuracy = 9.5E-12, # of iterations =  42

     total cpu time spent up to now is     9412.2 secs

     total energy              =   -3437.77096630 Ry
     estimated scf accuracy    <       0.00000034 Ry
     electrostatic embedding   =      -0.07989110 Ry
     cavitation energy         =       0.02119060 Ry
     PV energy                 =      -0.08374210 Ry
     correction to one-el term =     180.02518980 Ry

     iteration # 26     ecut=    50.00 Ry     beta= 0.70
     Davidson diagonalization with overlap
     ethr =  9.23E-11,  avg # of iterations =  2.0

     negative rho (up, down):  1.824E-04 0.000E+00

     add environment contribution to local potential
     Polarization accuracy = 2.3E-12, # of iterations =  43

     total cpu time spent up to now is     9743.7 secs

     total energy              =   -3437.77096673 Ry
     estimated scf accuracy    <       0.00000016 Ry
     electrostatic embedding   =      -0.07983384 Ry
     cavitation energy         =       0.02118992 Ry
     PV energy                 =      -0.08374323 Ry
     correction to one-el term =     180.02963794 Ry

     iteration # 27     ecut=    50.00 Ry     beta= 0.70
     Davidson diagonalization with overlap
     ethr =  4.48E-11,  avg # of iterations =  2.0

     negative rho (up, down):  1.593E-04 0.000E+00

     add environment contribution to local potential
     Polarization accuracy = 2.3E-12, # of iterations =  43

     total cpu time spent up to now is    10071.0 secs

     total energy              =   -3437.77096714 Ry
     estimated scf accuracy    <       0.00000009 Ry
     electrostatic embedding   =      -0.07979165 Ry
     cavitation energy         =       0.02118976 Ry
     PV energy                 =      -0.08374410 Ry
     correction to one-el term =     180.03474227 Ry

     iteration # 28     ecut=    50.00 Ry     beta= 0.70
     Davidson diagonalization with overlap
     ethr =  2.42E-11,  avg # of iterations =  2.0

     negative rho (up, down):  1.239E-04 0.000E+00

     add environment contribution to local potential
     Polarization accuracy = 2.3E-12, # of iterations =  43

     total cpu time spent up to now is    10463.8 secs

     total energy              =   -3437.77096750 Ry
     estimated scf accuracy    <       0.00000007 Ry
     electrostatic embedding   =      -0.07975835 Ry
     cavitation energy         =       0.02118938 Ry
     PV energy                 =      -0.08374446 Ry
     correction to one-el term =     180.03700007 Ry

     iteration # 29     ecut=    50.00 Ry     beta= 0.70
     Davidson diagonalization with overlap
     ethr =  2.03E-11,  avg # of iterations =  2.0

     negative rho (up, down):  1.136E-04 0.000E+00

     add environment contribution to local potential
     Polarization accuracy = 2.3E-12, # of iterations =  43

     total cpu time spent up to now is    10821.5 secs

     total energy              =   -3437.77096789 Ry
     estimated scf accuracy    <       0.00000006 Ry
     electrostatic embedding   =      -0.07974982 Ry
     cavitation energy         =       0.02118982 Ry
     PV energy                 =      -0.08374390 Ry
     correction to one-el term =     180.03501002 Ry

     iteration # 30     ecut=    50.00 Ry     beta= 0.70
     Davidson diagonalization with overlap
     ethr =  1.72E-11,  avg # of iterations =  2.0

     negative rho (up, down):  1.018E-04 0.000E+00

     add environment contribution to local potential
     Polarization accuracy = 9.3E-12, # of iterations =  42

     total cpu time spent up to now is    11161.5 secs

     total energy              =   -3437.77096817 Ry
     estimated scf accuracy    <       0.00000006 Ry
     electrostatic embedding   =      -0.07974242 Ry
     cavitation energy         =       0.02118987 Ry
     PV energy                 =      -0.08374381 Ry
     correction to one-el term =     180.03456350 Ry

     iteration # 31     ecut=    50.00 Ry     beta= 0.70
     Davidson diagonalization with overlap
     ethr =  1.57E-11,  avg # of iterations =  1.0

     negative rho (up, down):  9.980E-05 0.000E+00

     add environment contribution to local potential
     Polarization accuracy = 2.3E-12, # of iterations =  43

     total cpu time spent up to now is    11485.3 secs

     total energy              =   -3437.77096869 Ry
     estimated scf accuracy    <       0.00000005 Ry
     electrostatic embedding   =      -0.07973975 Ry
     cavitation energy         =       0.02119018 Ry
     PV energy                 =      -0.08374352 Ry
     correction to one-el term =     180.03311420 Ry

     iteration # 32     ecut=    50.00 Ry     beta= 0.70
     Davidson diagonalization with overlap
     ethr =  1.43E-11,  avg # of iterations =  1.0

     negative rho (up, down):  1.049E-04 0.000E+00

     add environment contribution to local potential
     Polarization accuracy = 2.3E-12, # of iterations =  43

     total cpu time spent up to now is    11858.0 secs

     total energy              =   -3437.77096942 Ry
     estimated scf accuracy    <       0.00000005 Ry
     electrostatic embedding   =      -0.07973840 Ry
     cavitation energy         =       0.02119038 Ry
     PV energy                 =      -0.08374353 Ry
     correction to one-el term =     180.03256507 Ry

     iteration # 33     ecut=    50.00 Ry     beta= 0.70
     Davidson diagonalization with overlap
     ethr =  1.37E-11,  avg # of iterations =  2.0

     negative rho (up, down):  1.092E-04 0.000E+00

     add environment contribution to local potential
     Polarization accuracy = 2.3E-12, # of iterations =  43

     total cpu time spent up to now is    12181.5 secs

     total energy              =   -3437.77097225 Ry
     estimated scf accuracy    <       0.00000004 Ry
     electrostatic embedding   =      -0.07973977 Ry
     cavitation energy         =       0.02119078 Ry
     PV energy                 =      -0.08374358 Ry
     correction to one-el term =     180.03128277 Ry

     iteration # 34     ecut=    50.00 Ry     beta= 0.70
     Davidson diagonalization with overlap
     ethr =  1.07E-11,  avg # of iterations =  3.0

     negative rho (up, down):  1.222E-04 0.000E+00

     add environment contribution to local potential
     Polarization accuracy = 2.3E-12, # of iterations =  43

     total cpu time spent up to now is    12468.2 secs

     total energy              =   -3437.77097544 Ry
     estimated scf accuracy    <       0.00000004 Ry
     electrostatic embedding   =      -0.07975766 Ry
     cavitation energy         =       0.02119109 Ry
     PV energy                 =      -0.08374348 Ry
     correction to one-el term =     180.02924704 Ry

     iteration # 35     ecut=    50.00 Ry     beta= 0.70
     Davidson diagonalization with overlap
     ethr =  9.91E-12,  avg # of iterations =  5.0

     negative rho (up, down):  1.251E-04 0.000E+00

     add environment contribution to local potential
     Polarization accuracy = 2.3E-12, # of iterations =  43

     total cpu time spent up to now is    12838.5 secs

     total energy              =   -3437.77098336 Ry
     estimated scf accuracy    <       0.00000002 Ry
     electrostatic embedding   =      -0.07974470 Ry
     cavitation energy         =       0.02119070 Ry
     PV energy                 =      -0.08374431 Ry
     correction to one-el term =     180.03263483 Ry

     iteration # 36     ecut=    50.00 Ry     beta= 0.70
     Davidson diagonalization with overlap
     ethr =  4.50E-12,  avg # of iterations =  2.0

     negative rho (up, down):  1.232E-04 0.000E+00

     add environment contribution to local potential
     Polarization accuracy = 2.3E-12, # of iterations =  43

     total cpu time spent up to now is    13110.8 secs

     total energy              =   -3437.77098685 Ry
     estimated scf accuracy    <       0.00000001 Ry
     electrostatic embedding   =      -0.07974020 Ry
     cavitation energy         =       0.02119031 Ry
     PV energy                 =      -0.08374452 Ry
     correction to one-el term =     180.03455569 Ry

     iteration # 37     ecut=    50.00 Ry     beta= 0.70
     Davidson diagonalization with overlap
     ethr =  2.92E-12,  avg # of iterations =  2.0

     negative rho (up, down):  1.196E-04 0.000E+00

     add environment contribution to local potential
     Polarization accuracy = 6.7E-12, # of iterations =  42

     total cpu time spent up to now is    13426.1 secs

     total energy              =   -3437.77098817 Ry
     estimated scf accuracy    <          3.2E-09 Ry
     electrostatic embedding   =      -0.07974246 Ry
     cavitation energy         =       0.02119010 Ry
     PV energy                 =      -0.08374431 Ry
     correction to one-el term =     180.03505371 Ry

     iteration # 38     ecut=    50.00 Ry     beta= 0.70
     Davidson diagonalization with overlap
     ethr =  8.73E-13,  avg # of iterations =  6.0

     negative rho (up, down):  1.177E-04 0.000E+00

     add environment contribution to local potential
     Polarization accuracy = 6.0E-12, # of iterations =  42

     total cpu time spent up to now is    13701.4 secs

     total energy              =   -3437.77098974 Ry
     estimated scf accuracy    <          2.5E-09 Ry
     electrostatic embedding   =      -0.07974317 Ry
     cavitation energy         =       0.02119012 Ry
     PV energy                 =      -0.08374407 Ry
     correction to one-el term =     180.03471000 Ry

     iteration # 39     ecut=    50.00 Ry     beta= 0.70
     Davidson diagonalization with overlap
     ethr =  6.67E-13,  avg # of iterations =  2.0

     negative rho (up, down):  1.151E-04 0.000E+00

     the potential shift due to the Gaussian-smeared nuclei is    -1.3208 ev

     total cpu time spent up to now is    14013.3 secs

     End of self-consistent calculation

          k = 0.2500 0.2573 0.0000 ( 35510 PWs)   bands (ev):

   -76.7038 -76.6967 -76.6919 -76.6848 -76.5179 -76.5055 -76.4997 -76.4956
   -76.4876 -76.4842 -76.4514 -76.4183 -46.9132 -46.9056 -46.9012 -46.8937
   -46.8378 -46.8255 -46.7823 -46.7618 -46.7524 -46.7476 -46.7403 -46.7388
   -46.7255 -46.6814 -46.6396 -46.6278 -46.5733 -46.5607 -46.5559 -46.5439
   -46.4475 -46.4398 -46.4277 -46.4271 -46.3555 -46.3518 -46.3477 -46.3393
   -46.3355 -46.3280 -46.3273 -46.3248 -46.3150 -46.2991 -46.2570 -46.2396
   -26.1882 -26.1709 -22.9703 -22.7183 -22.6317 -22.5062 -22.3606 -22.3051
   -22.2296 -22.2012 -22.1424 -22.0936 -22.0611 -22.0311 -21.9846 -21.8617
   -21.7688 -21.7421 -21.7115 -21.7023 -21.6557 -21.6357 -21.5537 -21.5490
   -21.4857 -21.4818 -21.2210 -21.1113 -13.6178 -13.6006 -11.6377 -11.5144
   -10.8926 -10.8468 -10.8122 -10.7016 -10.5813 -10.5030 -10.4449 -10.3005
   -10.2891 -10.2569 -10.1453 -10.0254  -9.9849  -9.9055  -9.9006  -9.8797
    -9.8203  -9.7929  -9.7302  -9.7086  -9.6633  -9.5430  -9.4730  -9.3959
    -9.3329  -9.2664  -9.1926  -9.1188  -9.0959  -8.9530  -8.7911  -8.7792
    -8.6868  -8.5454  -8.4839  -8.3885  -8.2451  -8.1211  -8.0789  -8.0466
    -8.0284  -7.8872  -7.8315  -7.7636  -7.6971  -7.6296  -7.4947  -7.4357
    -7.4136  -7.3356  -7.2951  -7.2759  -7.2273  -7.1724  -7.1603  -7.0233
    -7.0026  -6.9663  -6.9174  -6.7983  -6.7913  -6.6970  -6.5073  -6.4841
    -6.3712  -6.3557  -6.1641  -6.1566  -6.0695  -6.0391  -5.9870  -5.8362
    -5.8006  -5.7110  -5.6391  -5.6008  -5.4976  -5.4562  -5.2465  -5.2085
    -4.2597  -4.2180  -4.1204  -4.0939  -4.0162  -3.9794  -3.9315  -3.8814
    -3.8534  -3.8100  -3.8024  -3.7413  -3.6887  -3.6424  -3.6019  -3.5900
    -3.5452  -3.4953  -3.4674  -3.4584  -3.3240  -3.2654  -3.2588  -3.1569
    -3.0683  -2.9605  -2.6956  -2.6748  -2.5244  -2.3284  -2.2925  -2.2753
    -2.2648  -2.1928  -2.0676  -1.8343  -1.5331  -1.0869  -0.8870  -0.8585
    -0.7146  -0.6669  -0.4867  -0.2711  -0.0298   0.1882   0.4964   0.4982
     0.6103   0.6825   0.7779   0.7896   0.9693   1.0975   1.1686   1.1940
     1.3108   1.5023   1.5191   1.5637   1.6956

     the Fermi energy is    -3.1068 ev

!    total energy              =   -3437.77099024 Ry
     estimated scf accuracy    <          7.6E-10 Ry
     smearing contrib. (-TS)   =       0.06950260 Ry
     internal energy E=F+TS    =   -3437.84049284 Ry

     The total energy is F=E-TS. E is the sum of the following terms:
     one-electron contribution =  -24947.16933825 Ry
     hartree contribution      =   12468.09316790 Ry
     xc contribution           =    -449.58485942 Ry
     ewald contribution        =    9577.40598247 Ry
     one-center paw contrib.   =    -266.47754915 Ry
     electrostatic embedding   =      -0.07974522 Ry
     cavitation energy         =       0.02119011 Ry
     PV energy                 =      -0.08374381 Ry
     correction to one-el term =     180.03440253 Ry

     WARNING: you are using the parabolic pbc correction;
              the potential shift above must be added to 
              band and Fermi energies.

     convergence has been achieved in  39 iterations

     negative rho (up, down):  1.151E-04 0.000E+00

     Forces acting on atoms (cartesian axes, Ry/au):

     atom    1 type  1   force =     0.00750780    0.00000000   -0.00918488
     atom    2 type  1   force =     0.00673827    0.00000000   -0.00500123
     atom    3 type  1   force =     0.00104328    0.00000000    0.06065840
     atom    4 type  1   force =     0.00001155    0.00000000   -0.01225668
     atom    5 type  2   force =     0.01504607    0.00000000    0.00491515
     atom    6 type  2   force =    -0.01497968    0.00000000    0.00512952
     atom    7 type  1   force =    -0.00205517    0.02107368   -0.00002333
     atom    8 type  1   force =     0.00199240    0.02224549   -0.00010159
     atom    9 type  2   force =     0.00185716    0.00000000    0.00293377
     atom   10 type  2   force =     0.00009588    0.00000000   -0.00386089
     atom   11 type  1   force =    -0.00205517   -0.02107368   -0.00002333
     atom   12 type  1   force =     0.00199240   -0.02224549   -0.00010159
     atom   13 type  1   force =     0.00001502    0.00000000   -0.00139801
     atom   14 type  1   force =    -0.00003262    0.00000000   -0.00123184
     atom   15 type  1   force =    -0.00097131    0.00000000   -0.00175341
     atom   16 type  1   force =    -0.00092890    0.00000000    0.00944308
     atom   17 type  2   force =    -0.00608354    0.00000000    0.00000000
     atom   18 type  2   force =     0.00651137    0.00000000    0.00000000
     atom   19 type  1   force =    -0.00001226   -0.02944619    0.00000000
     atom   20 type  1   force =     0.00012135   -0.01685745    0.00000000
     atom   21 type  2   force =    -0.00467979    0.00000000    0.00000000
     atom   22 type  2   force =     0.00615212    0.00000000    0.00000000
     atom   23 type  1   force =    -0.00001226    0.02944619    0.00000000
     atom   24 type  1   force =     0.00012135    0.01685745    0.00000000
     atom   25 type  1   force =    -0.00097131    0.00000000    0.00175341
     atom   26 type  1   force =    -0.00092890    0.00000000   -0.00944308
     atom   27 type  1   force =     0.00001502    0.00000000    0.00139801
     atom   28 type  1   force =    -0.00003262    0.00000000    0.00123184
     atom   29 type  2   force =     0.01504607    0.00000000   -0.00491515
     atom   30 type  2   force =    -0.01497968    0.00000000   -0.00512952
     atom   31 type  1   force =    -0.00205517    0.02107368    0.00002333
     atom   32 type  1   force =     0.00199240    0.02224549    0.00010159
     atom   33 type  2   force =     0.00185716    0.00000000   -0.00293377
     atom   34 type  2   force =     0.00009588    0.00000000    0.00386089
     atom   35 type  1   force =    -0.00205517   -0.02107368    0.00002333
     atom   36 type  1   force =     0.00199240   -0.02224549    0.00010159
     atom   37 type  1   force =     0.00104328    0.00000000   -0.06065840
     atom   38 type  1   force =     0.00001155    0.00000000    0.01225668
     atom   39 type  1   force =     0.00750780    0.00000000    0.00918488
     atom   40 type  1   force =     0.00673827    0.00000000    0.00500123
     atom   41 type  3   force =    -0.00702908    0.00000000    0.00104278
     atom   42 type  3   force =    -0.00702908    0.00000000   -0.00104278
     atom   43 type  3   force =    -0.00761528    0.00000000    0.00150950
     atom   44 type  3   force =    -0.00761528    0.00000000   -0.00150950
     atom   45 type  3   force =    -0.00084590    0.06148310   -0.03125782
     atom   46 type  3   force =    -0.00084590    0.06148310    0.03125782
     atom   47 type  3   force =    -0.00084590   -0.06148310   -0.03125782
     atom   48 type  3   force =    -0.00084590   -0.06148310    0.03125782
     The non-local contrib.  to forces
     atom    1 type  1   force =     1.71144034    0.00000000    0.30685680
     atom    2 type  1   force =     1.72286204    0.00000000    0.33258554
     atom    3 type  1   force =    -0.03715725    0.00000000   -1.49644426
     atom    4 type  1   force =     0.00314878    0.00000000    1.10038115
     atom    5 type  2   force =    -0.02131137    0.00000000   -0.01609455
     atom    6 type  2   force =     0.01978100    0.00000000   -0.01123336
     atom    7 type  1   force =    -0.00948507   -0.02573507    0.00767941
     atom    8 type  1   force =    -0.00286490   -0.01984592    0.01060005
     atom    9 type  2   force =     0.00067143    0.00000000    0.03578521
     atom   10 type  2   force =     0.00029477    0.00000000    0.03697011
     atom   11 type  1   force =    -0.00948507    0.02573507    0.00767941
     atom   12 type  1   force =    -0.00286490    0.01984592    0.01060005
     atom   13 type  1   force =     0.00883075    0.00000000    0.04503983
     atom   14 type  1   force =    -0.01000768    0.00000000   -0.19743073
     atom   15 type  1   force =    -0.00311753    0.00000000   -0.04432225
     atom   16 type  1   force =     0.01076295    0.00000000    0.07177067
     atom   17 type  2   force =    -0.00056917    0.00000000    0.00000000
     atom   18 type  2   force =     0.00179307    0.00000000    0.00000000
     atom   19 type  1   force =     0.03419903   -0.01997301    0.00000000
     atom   20 type  1   force =    -0.02787371    0.00667866    0.00000000
     atom   21 type  2   force =     0.01492060    0.00000000    0.00000000
     atom   22 type  2   force =    -0.00126677    0.00000000    0.00000000
     atom   23 type  1   force =     0.03419903    0.01997301    0.00000000
     atom   24 type  1   force =    -0.02787371   -0.00667866    0.00000000
     atom   25 type  1   force =    -0.00311753    0.00000000    0.04432225
     atom   26 type  1   force =     0.01076295    0.00000000   -0.07177067
     atom   27 type  1   force =     0.00883075    0.00000000   -0.04503983
     atom   28 type  1   force =    -0.01000768    0.00000000    0.19743073
     atom   29 type  2   force =    -0.02131137    0.00000000    0.01609455
     atom   30 type  2   force =     0.01978100    0.00000000    0.01123336
     atom   31 type  1   force =    -0.00948507   -0.02573507   -0.00767941
     atom   32 type  1   force =    -0.00286490   -0.01984592   -0.01060005
     atom   33 type  2   force =     0.00067143    0.00000000   -0.03578521
     atom   34 type  2   force =     0.00029477    0.00000000   -0.03697011
     atom   35 type  1   force =    -0.00948507    0.02573507   -0.00767941
     atom   36 type  1   force =    -0.00286490    0.01984592   -0.01060005
     atom   37 type  1   force =    -0.03715725    0.00000000    1.49644426
     atom   38 type  1   force =     0.00314878    0.00000000   -1.10038115
     atom   39 type  1   force =     1.71144034    0.00000000   -0.30685680
     atom   40 type  1   force =     1.72286204    0.00000000   -0.33258554
     atom   41 type  3   force =    -0.09962603    0.00000000    0.03204566
     atom   42 type  3   force =    -0.09962603    0.00000000   -0.03204566
     atom   43 type  3   force =    -0.09911064    0.00000000    0.03380624
     atom   44 type  3   force =    -0.09911064    0.00000000   -0.03380624
     atom   45 type  3   force =     0.00134829   -0.09711806    0.07532385
     atom   46 type  3   force =     0.00134829   -0.09711806   -0.07532385
     atom   47 type  3   force =     0.00134829    0.09711806    0.07532385
     atom   48 type  3   force =     0.00134829    0.09711806   -0.07532385
     The ionic contribution  to forces
     atom    1 type  1   force =    -2.81284221    0.00000016  -93.05302392
     atom    2 type  1   force =    -2.81514145    0.00000016  -93.90627730
     atom    3 type  1   force =     0.12405376   -0.00000024  -87.18790978
     atom    4 type  1   force =    -0.03427318   -0.00000035  -93.34051607
     atom    5 type  2   force =    -5.52430189   -0.00000240 -168.39417034
     atom    6 type  2   force =     5.50432355   -0.00000250 -167.93541896
     atom    7 type  1   force =    -0.52596117   -1.19947849  -63.06405955
     atom    8 type  1   force =     0.54379274   -1.18412545  -63.06419712
     atom    9 type  2   force =    -0.05997673    0.00000360 -163.79833440
     atom   10 type  2   force =    -0.09020189    0.00000328 -168.97720941
     atom   11 type  1   force =    -0.52596117    1.19947898  -63.06405706
     atom   12 type  1   force =     0.54379274    1.18412596  -63.06419457
     atom   13 type  1   force =    -0.09928892   -0.00000161  -38.53760000
     atom   14 type  1   force =     0.08047961   -0.00000160  -35.94958659
     atom   15 type  1   force =    -0.09958275    0.00001049  -24.62888044
     atom   16 type  1   force =     0.00394380    0.00000961  -26.02276664
     atom   17 type  2   force =    -0.17506907    0.00001963   -0.00044348
     atom   18 type  2   force =     0.22112428    0.00001902   -0.00046670
     atom   19 type  1   force =    -0.28601409    0.66395759   -0.00008005
     atom   20 type  1   force =     0.25689971    0.97785410   -0.00008053
     atom   21 type  2   force =     0.19638013    0.00011398   -0.00026837
     atom   22 type  2   force =     0.01920258    0.00011049   -0.00026940
     atom   23 type  1   force =    -0.28601289   -0.66411223   -0.00008005
     atom   24 type  1   force =     0.25689786   -0.97800178   -0.00008053
     atom   25 type  1   force =    -0.09958583    0.00001049   24.62867043
     atom   26 type  1   force =     0.00394221    0.00000961   26.02261939
     atom   27 type  1   force =    -0.09929023   -0.00000161   38.53787901
     atom   28 type  1   force =     0.08048158   -0.00000160   35.94990801
     atom   29 type  2   force =    -5.52418931   -0.00000240  168.39445304
     atom   30 type  2   force =     5.50421243   -0.00000250  167.93570203
     atom   31 type  1   force =    -0.52595618   -1.19950933   63.06412212
     atom   32 type  1   force =     0.54379022   -1.18415623   63.06425927
     atom   33 type  2   force =    -0.05998429    0.00000360  163.79846573
     atom   34 type  2   force =    -0.09020780    0.00000328  168.97734280
     atom   35 type  1   force =    -0.52595618    1.19950982   63.06411964
     atom   36 type  1   force =     0.54379022    1.18415673   63.06425673
     atom   37 type  1   force =     0.12405812   -0.00000024   87.18784674
     atom   38 type  1   force =    -0.03427319   -0.00000035   93.34063586
     atom   39 type  1   force =    -2.81290594    0.00000016   93.05315405
     atom   40 type  1   force =    -2.81520895    0.00000016   93.90640305
     atom   41 type  3   force =     2.90122697    0.00000002  -15.90782779
     atom   42 type  3   force =     2.90129431    0.00000002   15.90782555
     atom   43 type  3   force =     2.85598741    0.00000002  -15.95541443
     atom   44 type  3   force =     2.85605998    0.00000002   15.95541813
     atom   45 type  3   force =    -0.03588573    2.60240826  -16.88947100
     atom   46 type  3   force =    -0.03588872    2.60265898   16.88953693
     atom   47 type  3   force =    -0.03588573   -2.60240829  -16.88947097
     atom   48 type  3   force =    -0.03588872   -2.60265901   16.88953690
     The local contribution  to forces
     atom    1 type  1   force =     1.11434257    0.00000000   92.73036420
     atom    2 type  1   force =     1.09531405    0.00000000   93.50277253
     atom    3 type  1   force =    -0.08540235   -0.00000000   88.90091975
     atom    4 type  1   force =     0.02735530   -0.00000000   92.16106192
     atom    5 type  2   force =     5.63938240   -0.00000000  168.42524243
     atom    6 type  2   force =    -5.61665379   -0.00000000  167.96651553
     atom    7 type  1   force =     0.55662557    1.25243428   63.05185883
     atom    8 type  1   force =    -0.56136602    1.23252481   63.05094012
     atom    9 type  2   force =     0.06217501   -0.00000000  163.78747817
     atom   10 type  2   force =     0.08608086   -0.00000000  168.87298268
     atom   11 type  1   force =     0.55662557   -1.25243428   63.05185883
     atom   12 type  1   force =    -0.56136602   -1.23252481   63.05094012
     atom   13 type  1   force =     0.09085310   -0.00000000   38.50145962
     atom   14 type  1   force =    -0.07089611   -0.00000000   36.13613083
     atom   15 type  1   force =     0.10181249    0.00000000   24.67218991
     atom   16 type  1   force =    -0.01568553   -0.00000000   25.95698277
     atom   17 type  2   force =     0.16981445   -0.00000000   -0.00584536
     atom   18 type  2   force =    -0.21655819    0.00000000   -0.00579492
     atom   19 type  1   force =     0.25442359   -0.67389355   -0.00243566
     atom   20 type  1   force =    -0.23146281   -1.00134768   -0.00242676
     atom   21 type  2   force =    -0.21052769   -0.00000000   -0.00598569
     atom   22 type  2   force =    -0.01723592   -0.00000000   -0.00597317
     atom   23 type  1   force =     0.25442248    0.67353259   -0.00243566
     atom   24 type  1   force =    -0.23146116    1.00098131   -0.00242676
     atom   25 type  1   force =     0.10180834    0.00000000  -24.67393297
     atom   26 type  1   force =    -0.01568750   -0.00000000  -25.95869415
     atom   27 type  1   force =     0.09085394   -0.00000000  -38.50324901
     atom   28 type  1   force =    -0.07089520   -0.00000000  -36.13785618
     atom   29 type  2   force =     5.63943058    0.00000000 -168.43125107
     atom   30 type  2   force =    -5.61669984    0.00000000 -167.97252702
     atom   31 type  1   force =     0.55663485    1.25244007  -63.05428502
     atom   32 type  1   force =    -0.56137585    1.23253003  -63.05336864
     atom   33 type  2   force =     0.06217642    0.00000000 -163.79326960
     atom   34 type  2   force =     0.08608327    0.00000000 -168.87876686
     atom   35 type  1   force =     0.55663485   -1.25244007  -63.05428502
     atom   36 type  1   force =    -0.56137585   -1.23253003  -63.05336864
     atom   37 type  1   force =    -0.08540167   -0.00000000  -88.90457815
     atom   38 type  1   force =     0.02735531   -0.00000000  -92.16489749
     atom   39 type  1   force =     1.11436191   -0.00000000  -92.73195982
     atom   40 type  1   force =     1.09533349   -0.00000000  -93.50432556
     atom   41 type  3   force =    -2.79992242   -0.00000000   15.87708188
     atom   42 type  3   force =    -2.79992242   -0.00000000  -15.87708188
     atom   43 type  3   force =    -2.77787597   -0.00000000   15.92034626
     atom   44 type  3   force =    -2.77787597   -0.00000000  -15.92034626
     atom   45 type  3   force =     0.03303868   -2.43421915   16.82957402
     atom   46 type  3   force =     0.03303868   -2.43421915  -16.82957402
     atom   47 type  3   force =     0.03303868    2.43421915   16.82957402
     atom   48 type  3   force =     0.03303868    2.43421915  -16.82957402
     The core correction contribution to forces
     atom    1 type  1   force =    -0.01711872   -0.00000000   -0.00334480
     atom    2 type  1   force =    -0.01729591   -0.00000000   -0.00340962
     atom    3 type  1   force =     0.00032983   -0.00000000    0.01284681
     atom    4 type  1   force =    -0.00003697   -0.00000000   -0.01093070
     atom    5 type  2   force =     0.00000000    0.00000000    0.00000000
     atom    6 type  2   force =     0.00000000    0.00000000    0.00000000
     atom    7 type  1   force =     0.00011880   -0.00006460   -0.00007731
     atom    8 type  1   force =     0.00005237   -0.00014652   -0.00010240
     atom    9 type  2   force =     0.00000000    0.00000000    0.00000000
     atom   10 type  2   force =     0.00000000    0.00000000    0.00000000
     atom   11 type  1   force =     0.00011880    0.00006460   -0.00007731
     atom   12 type  1   force =     0.00005237    0.00014652   -0.00010240
     atom   13 type  1   force =    -0.00008065    0.00000000   -0.00049787
     atom   14 type  1   force =     0.00010503    0.00000000    0.00239086
     atom   15 type  1   force =     0.00005060   -0.00000000    0.00015479
     atom   16 type  1   force =    -0.00011760   -0.00000000   -0.00132949
     atom   17 type  2   force =     0.00000000    0.00000000    0.00000000
     atom   18 type  2   force =     0.00000000    0.00000000    0.00000000
     atom   19 type  1   force =    -0.00039638    0.00071455   -0.00000204
     atom   20 type  1   force =     0.00033539    0.00021977   -0.00000198
     atom   21 type  2   force =     0.00000000    0.00000000    0.00000000
     atom   22 type  2   force =     0.00000000    0.00000000    0.00000000
     atom   23 type  1   force =    -0.00039638   -0.00071514   -0.00000204
     atom   24 type  1   force =     0.00033539   -0.00022039   -0.00000198
     atom   25 type  1   force =     0.00005057    0.00000000   -0.00015695
     atom   26 type  1   force =    -0.00011762   -0.00000000    0.00132738
     atom   27 type  1   force =    -0.00008065   -0.00000000    0.00049564
     atom   28 type  1   force =     0.00010503   -0.00000000   -0.00239326
     atom   29 type  2   force =     0.00000000    0.00000000    0.00000000
     atom   30 type  2   force =     0.00000000    0.00000000    0.00000000
     atom   31 type  1   force =     0.00011892   -0.00006456    0.00007538
     atom   32 type  1   force =     0.00005228   -0.00014648    0.00010045
     atom   33 type  2   force =     0.00000000    0.00000000    0.00000000
     atom   34 type  2   force =     0.00000000    0.00000000    0.00000000
     atom   35 type  1   force =     0.00011892    0.00006456    0.00007538
     atom   36 type  1   force =     0.00005228    0.00014648    0.00010045
     atom   37 type  1   force =     0.00032987   -0.00000000   -0.01285058
     atom   38 type  1   force =    -0.00003696    0.00000000    0.01092690
     atom   39 type  1   force =    -0.01711948   -0.00000000    0.00334247
     atom   40 type  1   force =    -0.01729671    0.00000000    0.00340740
     atom   41 type  3   force =     0.00000000    0.00000000    0.00000000
     atom   42 type  3   force =     0.00000000    0.00000000    0.00000000
     atom   43 type  3   force =     0.00000000    0.00000000    0.00000000
     atom   44 type  3   force =     0.00000000    0.00000000    0.00000000
     atom   45 type  3   force =     0.00000000    0.00000000    0.00000000
     atom   46 type  3   force =     0.00000000    0.00000000    0.00000000
     atom   47 type  3   force =     0.00000000    0.00000000    0.00000000
     atom   48 type  3   force =     0.00000000    0.00000000    0.00000000
     The Hubbard contrib.    to forces
     atom    1 type  1   force =     0.00000000    0.00000000    0.00000000
     atom    2 type  1   force =     0.00000000    0.00000000    0.00000000
     atom    3 type  1   force =     0.00000000    0.00000000    0.00000000
     atom    4 type  1   force =     0.00000000    0.00000000    0.00000000
     atom    5 type  2   force =     0.00000000    0.00000000    0.00000000
     atom    6 type  2   force =     0.00000000    0.00000000    0.00000000
     atom    7 type  1   force =     0.00000000    0.00000000    0.00000000
     atom    8 type  1   force =     0.00000000    0.00000000    0.00000000
     atom    9 type  2   force =     0.00000000    0.00000000    0.00000000
     atom   10 type  2   force =     0.00000000    0.00000000    0.00000000
     atom   11 type  1   force =     0.00000000    0.00000000    0.00000000
     atom   12 type  1   force =     0.00000000    0.00000000    0.00000000
     atom   13 type  1   force =     0.00000000    0.00000000    0.00000000
     atom   14 type  1   force =     0.00000000    0.00000000    0.00000000
     atom   15 type  1   force =     0.00000000    0.00000000    0.00000000
     atom   16 type  1   force =     0.00000000    0.00000000    0.00000000
     atom   17 type  2   force =     0.00000000    0.00000000    0.00000000
     atom   18 type  2   force =     0.00000000    0.00000000    0.00000000
     atom   19 type  1   force =     0.00000000    0.00000000    0.00000000
     atom   20 type  1   force =     0.00000000    0.00000000    0.00000000
     atom   21 type  2   force =     0.00000000    0.00000000    0.00000000
     atom   22 type  2   force =     0.00000000    0.00000000    0.00000000
     atom   23 type  1   force =     0.00000000    0.00000000    0.00000000
     atom   24 type  1   force =     0.00000000    0.00000000    0.00000000
     atom   25 type  1   force =     0.00000000    0.00000000    0.00000000
     atom   26 type  1   force =     0.00000000    0.00000000    0.00000000
     atom   27 type  1   force =     0.00000000    0.00000000    0.00000000
     atom   28 type  1   force =     0.00000000    0.00000000    0.00000000
     atom   29 type  2   force =     0.00000000    0.00000000    0.00000000
     atom   30 type  2   force =     0.00000000    0.00000000    0.00000000
     atom   31 type  1   force =     0.00000000    0.00000000    0.00000000
     atom   32 type  1   force =     0.00000000    0.00000000    0.00000000
     atom   33 type  2   force =     0.00000000    0.00000000    0.00000000
     atom   34 type  2   force =     0.00000000    0.00000000    0.00000000
     atom   35 type  1   force =     0.00000000    0.00000000    0.00000000
     atom   36 type  1   force =     0.00000000    0.00000000    0.00000000
     atom   37 type  1   force =     0.00000000    0.00000000    0.00000000
     atom   38 type  1   force =     0.00000000    0.00000000    0.00000000
     atom   39 type  1   force =     0.00000000    0.00000000    0.00000000
     atom   40 type  1   force =     0.00000000    0.00000000    0.00000000
     atom   41 type  3   force =     0.00000000    0.00000000    0.00000000
     atom   42 type  3   force =     0.00000000    0.00000000    0.00000000
     atom   43 type  3   force =     0.00000000    0.00000000    0.00000000
     atom   44 type  3   force =     0.00000000    0.00000000    0.00000000
     atom   45 type  3   force =     0.00000000    0.00000000    0.00000000
     atom   46 type  3   force =     0.00000000    0.00000000    0.00000000
     atom   47 type  3   force =     0.00000000    0.00000000    0.00000000
     atom   48 type  3   force =     0.00000000    0.00000000    0.00000000
     The SCF correction term to forces
     atom    1 type  1   force =     0.00000202   -0.00000002   -0.00001913
     atom    2 type  1   force =     0.00000182   -0.00000002   -0.00001759
     atom    3 type  1   force =    -0.00000422    0.00000002   -0.00001212
     atom    4 type  1   force =     0.00000648    0.00000003   -0.00002147
     atom    5 type  2   force =    -0.00000246    0.00000013   -0.00003186
     atom    6 type  2   force =     0.00000434    0.00000013   -0.00003557
     atom    7 type  1   force =    -0.00000137    0.00000474   -0.00001342
     atom    8 type  1   force =     0.00000097   -0.00000268   -0.00001565
     atom    9 type  2   force =     0.00000103   -0.00000013   -0.00003722
     atom   10 type  2   force =     0.00000021   -0.00000012   -0.00004764
     atom   11 type  1   force =    -0.00000137   -0.00000478   -0.00001344
     atom   12 type  1   force =     0.00000097    0.00000265   -0.00001567
     atom   13 type  1   force =    -0.00000377    0.00000006    0.00000491
     atom   14 type  1   force =     0.00000401    0.00000006   -0.00000900
     atom   15 type  1   force =     0.00001155   -0.00000007   -0.00000432
     atom   16 type  1   force =    -0.00001068   -0.00000007   -0.00000893
     atom   17 type  2   force =     0.00000585    0.00000023    0.00001315
     atom   18 type  2   force =    -0.00000678    0.00000022    0.00001322
     atom   19 type  1   force =    -0.00001395    0.00000123    0.00000484
     atom   20 type  1   force =     0.00001429   -0.00001261    0.00000483
     atom   21 type  2   force =    -0.00001752   -0.00000022    0.00001306
     atom   22 type  2   force =     0.00001472   -0.00000022    0.00001304
     atom   23 type  1   force =    -0.00001395   -0.00000117    0.00000484
     atom   24 type  1   force =     0.00001429    0.00001267    0.00000483
     atom   25 type  1   force =     0.00001156   -0.00000007    0.00001209
     atom   26 type  1   force =    -0.00001069   -0.00000007    0.00001645
     atom   27 type  1   force =    -0.00000375    0.00000006    0.00000008
     atom   28 type  1   force =     0.00000398    0.00000006    0.00001407
     atom   29 type  2   force =    -0.00000249    0.00000013    0.00003159
     atom   30 type  2   force =     0.00000436    0.00000013    0.00003533
     atom   31 type  1   force =    -0.00000135    0.00000461    0.00001339
     atom   32 type  1   force =     0.00000094   -0.00000280    0.00001561
     atom   33 type  2   force =     0.00000108   -0.00000013    0.00003733
     atom   34 type  2   force =     0.00000016   -0.00000012    0.00004689
     atom   35 type  1   force =    -0.00000135   -0.00000465    0.00001341
     atom   36 type  1   force =     0.00000094    0.00000277    0.00001564
     atom   37 type  1   force =    -0.00000420    0.00000002    0.00000925
     atom   38 type  1   force =     0.00000645    0.00000003    0.00001880
     atom   39 type  1   force =     0.00000201   -0.00000002    0.00001629
     atom   40 type  1   force =     0.00000180   -0.00000002    0.00001472
     atom   41 type  3   force =    -0.00000067   -0.00000000   -0.00000201
     atom   42 type  3   force =    -0.00000066   -0.00000000    0.00000156
     atom   43 type  3   force =    -0.00000034   -0.00000000   -0.00000188
     atom   44 type  3   force =    -0.00000032   -0.00000000    0.00000143
     atom   45 type  3   force =    -0.00000030    0.00000087   -0.00000212
     atom   46 type  3   force =    -0.00000030    0.00000086    0.00000167
     atom   47 type  3   force =    -0.00000030   -0.00000087   -0.00000212
     atom   48 type  3   force =    -0.00000030   -0.00000086    0.00000167

     Total force =     0.186598     Total SCF correction =     0.000141

     BFGS Geometry Optimization
     Energy error            =      0.0E+00 Ry
     Gradient error          =      6.1E-02 Ry/Bohr

     number of scf cycles    =   1
     number of bfgs steps    =   0

     energy             new  =   -3437.7709902395 Ry

     new trust radius        =       0.0689778094 bohr
     new conv_thr            =       0.0000000010 Ry


ATOMIC_POSITIONS (crystal)
O            -0.0030927455        0.5000000000        0.2684970662
O             0.4963867707        0.5000000000        0.2669088092
O            -0.0028238633        0.0000000000        0.2898040375
O             0.4983436293        0.0000000000        0.3074293637
Ru            0.2573978266        0.0000000000        0.3573017294
Ru            0.7388852799        0.0000000000        0.3574062693
O             0.2469942903        0.3087509172        0.3564356509
O             0.7495427440        0.3084442654        0.3564024809
Ru           -0.0020317126        0.5000000000        0.3590756980
Ru            0.4983955472        0.5000000000        0.3552591633
O             0.2469942903        0.6912490828        0.3564356509
O             0.7495427440        0.6915557346        0.3564024809
O            -0.0011405040        0.0000000000        0.4113575004
O             0.4976997920        0.0000000000        0.4121946612
O            -0.0015723432        0.5000000000        0.4460400302
O             0.4986708824        0.5000000000        0.4422666506
Ru           -0.0010109238        0.0000000000        0.5000010000
Ru            0.4970900343        0.0000000000        0.5000010000
O             0.2476824349        0.1928141969        0.5000010000
O             0.7488318081        0.1902784270        0.5000010000
Ru            0.2524447675        0.5000000000        0.5000010000
Ru            0.7436931166        0.5000000000        0.5000010000
O             0.2476824349        0.8071868031        0.5000010000
O             0.7488318081        0.8097225730        0.5000010000
O            -0.0015723432        0.5000000000        0.5539609698
O             0.4986708824        0.5000000000        0.5577343494
O            -0.0011405040        0.0000000000        0.5886434996
O             0.4976997920        0.0000000000        0.5878063388
Ru            0.2573978266        0.0000000000        0.6426992706
Ru            0.7388852799        0.0000000000        0.6425947307
O             0.2469942903        0.3087509172        0.6435653491
O             0.7495427440        0.3084442654        0.6435985191
Ru           -0.0020317126        0.5000000000        0.6409253020
Ru            0.4983955472        0.5000000000        0.6447418367
O             0.2469942903        0.6912490828        0.6435653491
O             0.7495427440        0.6915557346        0.6435985191
O            -0.0028238633        0.0000000000        0.7101979625
O             0.4983436293        0.0000000000        0.6925726363
O            -0.0030927455        0.5000000000        0.7315039338
O             0.4963867707        0.5000000000        0.7330921908
H             0.1423925562        0.5000000000        0.2555960984
H             0.1423925562        0.5000000000        0.7444039016
H             0.6411539104        0.5000000000        0.2531890092
H             0.6411539104        0.5000000000        0.7468109908
H            -0.0045459174        0.1258979794        0.2611267741
H            -0.0045459174        0.1258979794        0.7388732259
H            -0.0045459174        0.8741020206        0.2611267741
H            -0.0045459174        0.8741020206        0.7388732259



     Writing config-only to output data dir /storage/home/mgm6007/ixd4/Maria/Strain0_Files/RuO2-110-0-0124/RuO2-110-0-0124.save/
     NEW-OLD atomic charge density approx. for the potential

     Check: negative core charge=   -0.000001

     negative rho (up, down):  1.130E-04 0.000E+00

     add environment contribution to local potential
     Polarization accuracy = 9.5E-12, # of iterations =  41

     total cpu time spent up to now is    14366.7 secs

     per-process dynamical memory:   212.3 Mb

     Self-consistent Calculation

     iteration #  1     ecut=    50.00 Ry     beta= 0.70
     Davidson diagonalization with overlap
     ethr =  1.00E-06,  avg # of iterations =  7.0

     negative rho (up, down):  1.631E-04 0.000E+00

     add environment contribution to local potential
     Polarization accuracy = 3.4E-12, # of iterations =  42

     total cpu time spent up to now is    14676.7 secs

     total energy              =   -3437.78030652 Ry
     estimated scf accuracy    <       0.01142602 Ry
     electrostatic embedding   =      -0.07698103 Ry
     cavitation energy         =       0.02112368 Ry
     PV energy                 =      -0.08386438 Ry
     correction to one-el term =     180.40144271 Ry

     iteration #  2     ecut=    50.00 Ry     beta= 0.70
     Davidson diagonalization with overlap
     ethr =  3.10E-06,  avg # of iterations =  3.0

     negative rho (up, down):  1.527E-04 0.000E+00

     add environment contribution to local potential
     Polarization accuracy = 3.9E-12, # of iterations =  42

     total cpu time spent up to now is    14983.1 secs

     total energy              =   -3437.78087552 Ry
     estimated scf accuracy    <       0.01215579 Ry
     electrostatic embedding   =      -0.07683035 Ry
     cavitation energy         =       0.02116575 Ry
     PV energy                 =      -0.08382460 Ry
     correction to one-el term =     180.56596712 Ry

     iteration #  3     ecut=    50.00 Ry     beta= 0.70
     Davidson diagonalization with overlap
     ethr =  3.10E-06,  avg # of iterations =  1.0

     negative rho (up, down):  1.273E-04 0.000E+00

     add environment contribution to local potential
     Polarization accuracy = 2.4E-12, # of iterations =  43

     total cpu time spent up to now is    15273.0 secs

     total energy              =   -3437.78151887 Ry
     estimated scf accuracy    <       0.00292720 Ry
     electrostatic embedding   =      -0.07693620 Ry
     cavitation energy         =       0.02116113 Ry
     PV energy                 =      -0.08383284 Ry
     correction to one-el term =     180.55082682 Ry

     iteration #  4     ecut=    50.00 Ry     beta= 0.70
     Davidson diagonalization with overlap
     ethr =  7.95E-07,  avg # of iterations =  2.0

     negative rho (up, down):  9.920E-05 0.000E+00

     add environment contribution to local potential
     Polarization accuracy = 8.8E-12, # of iterations =  43

     total cpu time spent up to now is    15563.6 secs

     total energy              =   -3437.78168507 Ry
     estimated scf accuracy    <       0.00023770 Ry
     electrostatic embedding   =      -0.07735627 Ry
     cavitation energy         =       0.02116340 Ry
     PV energy                 =      -0.08384217 Ry
     correction to one-el term =     180.54554598 Ry

     iteration #  5     ecut=    50.00 Ry     beta= 0.70
     Davidson diagonalization with overlap
     ethr =  6.46E-08,  avg # of iterations =  2.0

     negative rho (up, down):  7.680E-05 0.000E+00

     add environment contribution to local potential
     Polarization accuracy = 8.0E-12, # of iterations =  41

     total cpu time spent up to now is    15911.2 secs

     total energy              =   -3437.78172076 Ry
     estimated scf accuracy    <       0.00029700 Ry
     electrostatic embedding   =      -0.07779128 Ry
     cavitation energy         =       0.02116235 Ry
     PV energy                 =      -0.08384765 Ry
     correction to one-el term =     180.50292116 Ry

     iteration #  6     ecut=    50.00 Ry     beta= 0.70
     Davidson diagonalization with overlap
     ethr =  6.46E-08,  avg # of iterations =  2.0

     negative rho (up, down):  5.731E-05 0.000E+00

     add environment contribution to local potential
     Polarization accuracy = 6.6E-12, # of iterations =  42

     total cpu time spent up to now is    16244.4 secs

     total energy              =   -3437.78173605 Ry
     estimated scf accuracy    <       0.00003697 Ry
     electrostatic embedding   =      -0.07815369 Ry
     cavitation energy         =       0.02116121 Ry
     PV energy                 =      -0.08385102 Ry
     correction to one-el term =     180.45530792 Ry

     iteration #  7     ecut=    50.00 Ry     beta= 0.70
     Davidson diagonalization with overlap
     ethr =  1.00E-08,  avg # of iterations =  2.0

     negative rho (up, down):  3.650E-05 0.000E+00

     add environment contribution to local potential
     Polarization accuracy = 4.6E-12, # of iterations =  42

     total cpu time spent up to now is    16587.3 secs

     total energy              =   -3437.78174318 Ry
     estimated scf accuracy    <       0.00003310 Ry
     electrostatic embedding   =      -0.07856532 Ry
     cavitation energy         =       0.02116109 Ry
     PV energy                 =      -0.08385118 Ry
     correction to one-el term =     180.39787131 Ry

     iteration #  8     ecut=    50.00 Ry     beta= 0.70
     Davidson diagonalization with overlap
     ethr =  8.99E-09,  avg # of iterations =  2.0

     negative rho (up, down):  2.462E-05 0.000E+00

     add environment contribution to local potential
     Polarization accuracy = 5.2E-12, # of iterations =  42

     total cpu time spent up to now is    16924.0 secs

     total energy              =   -3437.78175170 Ry
     estimated scf accuracy    <       0.00002322 Ry
     electrostatic embedding   =      -0.07921349 Ry
     cavitation energy         =       0.02116184 Ry
     PV energy                 =      -0.08384944 Ry
     correction to one-el term =     180.30227435 Ry

     iteration #  9     ecut=    50.00 Ry     beta= 0.70
     Davidson diagonalization with overlap
     ethr =  6.31E-09,  avg # of iterations =  2.0

     negative rho (up, down):  2.280E-05 0.000E+00

     add environment contribution to local potential
     Polarization accuracy = 3.9E-12, # of iterations =  42

     total cpu time spent up to now is    17228.0 secs

     total energy              =   -3437.78175768 Ry
     estimated scf accuracy    <       0.00000448 Ry
     electrostatic embedding   =      -0.07985262 Ry
     cavitation energy         =       0.02116337 Ry
     PV energy                 =      -0.08384631 Ry
     correction to one-el term =     180.20753372 Ry

     iteration # 10     ecut=    50.00 Ry     beta= 0.70
     Davidson diagonalization with overlap
     ethr =  1.22E-09,  avg # of iterations =  2.0

     negative rho (up, down):  2.506E-05 0.000E+00

     add environment contribution to local potential
     Polarization accuracy = 3.3E-12, # of iterations =  42

     total cpu time spent up to now is    17601.5 secs

     total energy              =   -3437.78175916 Ry
     estimated scf accuracy    <       0.00000315 Ry
     electrostatic embedding   =      -0.08018269 Ry
     cavitation energy         =       0.02116536 Ry
     PV energy                 =      -0.08384254 Ry
     correction to one-el term =     180.16075604 Ry

     iteration # 11     ecut=    50.00 Ry     beta= 0.70
     Davidson diagonalization with overlap
     ethr =  8.56E-10,  avg # of iterations =  2.0

     negative rho (up, down):  3.107E-05 0.000E+00

     add environment contribution to local potential
     Polarization accuracy = 4.0E-12, # of iterations =  42

     total cpu time spent up to now is    17868.0 secs

     total energy              =   -3437.78175977 Ry
     estimated scf accuracy    <       0.00000112 Ry
     electrostatic embedding   =      -0.08034669 Ry
     cavitation energy         =       0.02116698 Ry
     PV energy                 =      -0.08383930 Ry
     correction to one-el term =     180.13980569 Ry

     iteration # 12     ecut=    50.00 Ry     beta= 0.70
     Davidson diagonalization with overlap
     ethr =  3.03E-10,  avg # of iterations =  2.0

     negative rho (up, down):  4.272E-05 0.000E+00

     add environment contribution to local potential
     Polarization accuracy = 1.0E-11, # of iterations =  40

     total cpu time spent up to now is    18160.1 secs

     total energy              =   -3437.78176024 Ry
     estimated scf accuracy    <       0.00000044 Ry
     electrostatic embedding   =      -0.08051106 Ry
     cavitation energy         =       0.02116840 Ry
     PV energy                 =      -0.08383584 Ry
     correction to one-el term =     180.11973986 Ry

     iteration # 13     ecut=    50.00 Ry     beta= 0.70
     Davidson diagonalization with overlap
     ethr =  1.18E-10,  avg # of iterations =  2.0

     negative rho (up, down):  5.583E-05 0.000E+00

     add environment contribution to local potential
     Polarization accuracy = 3.3E-12, # of iterations =  42

     total cpu time spent up to now is    18528.9 secs

     total energy              =   -3437.78176057 Ry
     estimated scf accuracy    <       0.00000047 Ry
     electrostatic embedding   =      -0.08051991 Ry
[...]
     atom   15 type  1   force =     0.06235459    0.00000000   24.80479134
     atom   16 type  1   force =    -0.02383165    0.00000000   25.83997409
     atom   17 type  2   force =     0.02891524    0.00000000   -0.00586724
     atom   18 type  2   force =    -0.04491661    0.00000000   -0.00581146
     atom   19 type  1   force =     0.21008254   -1.49051387   -0.00243071
     atom   20 type  1   force =    -0.20118848   -1.50447475   -0.00243160
     atom   21 type  2   force =    -0.17501027   -0.00000000   -0.00596269
     atom   22 type  2   force =     0.03817738    0.00000000   -0.00596706
     atom   23 type  1   force =     0.21008143    1.49014606   -0.00243071
     atom   24 type  1   force =    -0.20118746    1.50410689   -0.00243160
     atom   25 type  1   force =     0.06235372    0.00000000  -24.80653499
     atom   26 type  1   force =    -0.02383451    0.00000000  -25.84169645
     atom   27 type  1   force =     0.03779597   -0.00000000  -38.61168602
     atom   28 type  1   force =    -0.03345715   -0.00000000  -35.94601241
     atom   29 type  2   force =     6.03635013   -0.00000000 -167.87665658
     atom   30 type  2   force =    -5.93878632    0.00000000 -167.76692322
     atom   31 type  1   force =     0.56839022    1.86478715  -62.67531238
     atom   32 type  1   force =    -0.59081734    1.79609915  -63.10124246
     atom   33 type  2   force =     0.33811943    0.00000000 -163.90529916
     atom   34 type  2   force =    -0.21019583   -0.00000000 -168.11846030
     atom   35 type  1   force =     0.56839022   -1.86478715  -62.67531238
     atom   36 type  1   force =    -0.59081734   -1.79609915  -63.10124246
     atom   37 type  1   force =    -0.11129771    0.00000000  -88.93695011
     atom   38 type  1   force =     0.00817581    0.00000000  -92.18651056
     atom   39 type  1   force =     1.26201827   -0.00000000  -92.32326143
     atom   40 type  1   force =     1.01166313    0.00000000  -93.22244256
     atom   41 type  3   force =    -2.78869798    0.00000000   15.81367300
     atom   42 type  3   force =    -2.78869798   -0.00000000  -15.81367300
     atom   43 type  3   force =    -2.80665351    0.00000000   15.95130522
     atom   44 type  3   force =    -2.80665351    0.00000000  -15.95130522
     atom   45 type  3   force =     0.05042593   -2.27686994   16.57081815
     atom   46 type  3   force =     0.05042593   -2.27686994  -16.57081815
     atom   47 type  3   force =     0.05042593    2.27686994   16.57081815
     atom   48 type  3   force =     0.05042593    2.27686994  -16.57081815
     The core correction contribution to forces
     atom    1 type  1   force =    -0.01700752   -0.00000000   -0.00368768
     atom    2 type  1   force =    -0.01737516   -0.00000000   -0.00302859
     atom    3 type  1   force =     0.00052908   -0.00000000    0.01329913
     atom    4 type  1   force =    -0.00003557   -0.00000000   -0.01110830
     atom    5 type  2   force =     0.00000000    0.00000000    0.00000000
     atom    6 type  2   force =     0.00000000    0.00000000    0.00000000
     atom    7 type  1   force =     0.00005229    0.00021768   -0.00002319
     atom    8 type  1   force =     0.00017503    0.00024668   -0.00013454
     atom    9 type  2   force =     0.00000000    0.00000000    0.00000000
     atom   10 type  2   force =     0.00000000    0.00000000    0.00000000
     atom   11 type  1   force =     0.00005229   -0.00021768   -0.00002319
     atom   12 type  1   force =     0.00017503   -0.00024668   -0.00013454
     atom   13 type  1   force =    -0.00000292    0.00000000   -0.00072518
     atom   14 type  1   force =     0.00007159    0.00000000    0.00242873
     atom   15 type  1   force =     0.00007345   -0.00000000    0.00012692
     atom   16 type  1   force =    -0.00007638    0.00000000   -0.00113881
     atom   17 type  2   force =     0.00000000    0.00000000    0.00000000
     atom   18 type  2   force =     0.00000000    0.00000000    0.00000000
     atom   19 type  1   force =    -0.00033084    0.00011111   -0.00000198
     atom   20 type  1   force =     0.00028311    0.00010646   -0.00000198
     atom   21 type  2   force =     0.00000000    0.00000000    0.00000000
     atom   22 type  2   force =     0.00000000    0.00000000    0.00000000
     atom   23 type  1   force =    -0.00033085   -0.00011173   -0.00000198
     atom   24 type  1   force =     0.00028311   -0.00010707   -0.00000198
     atom   25 type  1   force =     0.00007342    0.00000000   -0.00012914
     atom   26 type  1   force =    -0.00007639   -0.00000000    0.00113668
     atom   27 type  1   force =    -0.00000292    0.00000000    0.00072293
     atom   28 type  1   force =     0.00007161    0.00000000   -0.00243116
     atom   29 type  2   force =     0.00000000    0.00000000    0.00000000
     atom   30 type  2   force =     0.00000000    0.00000000    0.00000000
     atom   31 type  1   force =     0.00005242    0.00021773    0.00002129
     atom   32 type  1   force =     0.00017493    0.00024674    0.00013261
     atom   33 type  2   force =     0.00000000    0.00000000    0.00000000
     atom   34 type  2   force =     0.00000000    0.00000000    0.00000000
     atom   35 type  1   force =     0.00005242   -0.00021773    0.00002129
     atom   36 type  1   force =     0.00017493   -0.00024674    0.00013261
     atom   37 type  1   force =     0.00052913   -0.00000000   -0.01330291
     atom   38 type  1   force =    -0.00003557   -0.00000000    0.01110450
     atom   39 type  1   force =    -0.01700826   -0.00000000    0.00368530
     atom   40 type  1   force =    -0.01737595   -0.00000000    0.00302628
     atom   41 type  3   force =     0.00000000    0.00000000    0.00000000
     atom   42 type  3   force =     0.00000000    0.00000000    0.00000000
     atom   43 type  3   force =     0.00000000    0.00000000    0.00000000
     atom   44 type  3   force =     0.00000000    0.00000000    0.00000000
     atom   45 type  3   force =     0.00000000    0.00000000    0.00000000
     atom   46 type  3   force =     0.00000000    0.00000000    0.00000000
     atom   47 type  3   force =     0.00000000    0.00000000    0.00000000
     atom   48 type  3   force =     0.00000000    0.00000000    0.00000000
     The Hubbard contrib.    to forces
     atom    1 type  1   force =     0.00000000    0.00000000    0.00000000
     atom    2 type  1   force =     0.00000000    0.00000000    0.00000000
     atom    3 type  1   force =     0.00000000    0.00000000    0.00000000
     atom    4 type  1   force =     0.00000000    0.00000000    0.00000000
     atom    5 type  2   force =     0.00000000    0.00000000    0.00000000
     atom    6 type  2   force =     0.00000000    0.00000000    0.00000000
     atom    7 type  1   force =     0.00000000    0.00000000    0.00000000
     atom    8 type  1   force =     0.00000000    0.00000000    0.00000000
     atom    9 type  2   force =     0.00000000    0.00000000    0.00000000
     atom   10 type  2   force =     0.00000000    0.00000000    0.00000000
     atom   11 type  1   force =     0.00000000    0.00000000    0.00000000
     atom   12 type  1   force =     0.00000000    0.00000000    0.00000000
     atom   13 type  1   force =     0.00000000    0.00000000    0.00000000
     atom   14 type  1   force =     0.00000000    0.00000000    0.00000000
     atom   15 type  1   force =     0.00000000    0.00000000    0.00000000
     atom   16 type  1   force =     0.00000000    0.00000000    0.00000000
     atom   17 type  2   force =     0.00000000    0.00000000    0.00000000
     atom   18 type  2   force =     0.00000000    0.00000000    0.00000000
     atom   19 type  1   force =     0.00000000    0.00000000    0.00000000
     atom   20 type  1   force =     0.00000000    0.00000000    0.00000000
     atom   21 type  2   force =     0.00000000    0.00000000    0.00000000
     atom   22 type  2   force =     0.00000000    0.00000000    0.00000000
     atom   23 type  1   force =     0.00000000    0.00000000    0.00000000
     atom   24 type  1   force =     0.00000000    0.00000000    0.00000000
     atom   25 type  1   force =     0.00000000    0.00000000    0.00000000
     atom   26 type  1   force =     0.00000000    0.00000000    0.00000000
     atom   27 type  1   force =     0.00000000    0.00000000    0.00000000
     atom   28 type  1   force =     0.00000000    0.00000000    0.00000000
     atom   29 type  2   force =     0.00000000    0.00000000    0.00000000
     atom   30 type  2   force =     0.00000000    0.00000000    0.00000000
     atom   31 type  1   force =     0.00000000    0.00000000    0.00000000
     atom   32 type  1   force =     0.00000000    0.00000000    0.00000000
     atom   33 type  2   force =     0.00000000    0.00000000    0.00000000
     atom   34 type  2   force =     0.00000000    0.00000000    0.00000000
     atom   35 type  1   force =     0.00000000    0.00000000    0.00000000
     atom   36 type  1   force =     0.00000000    0.00000000    0.00000000
     atom   37 type  1   force =     0.00000000    0.00000000    0.00000000
     atom   38 type  1   force =     0.00000000    0.00000000    0.00000000
     atom   39 type  1   force =     0.00000000    0.00000000    0.00000000
     atom   40 type  1   force =     0.00000000    0.00000000    0.00000000
     atom   41 type  3   force =     0.00000000    0.00000000    0.00000000
     atom   42 type  3   force =     0.00000000    0.00000000    0.00000000
     atom   43 type  3   force =     0.00000000    0.00000000    0.00000000
     atom   44 type  3   force =     0.00000000    0.00000000    0.00000000
     atom   45 type  3   force =     0.00000000    0.00000000    0.00000000
     atom   46 type  3   force =     0.00000000    0.00000000    0.00000000
     atom   47 type  3   force =     0.00000000    0.00000000    0.00000000
     atom   48 type  3   force =     0.00000000    0.00000000    0.00000000
     The SCF correction term to forces
     atom    1 type  1   force =     0.00000103   -0.00000000   -0.00000010
     atom    2 type  1   force =    -0.00000093   -0.00000000    0.00000123
     atom    3 type  1   force =    -0.00000042   -0.00000000    0.00000207
     atom    4 type  1   force =    -0.00000016    0.00000000    0.00000121
     atom    5 type  2   force =     0.00000327    0.00000000    0.00000472
     atom    6 type  2   force =    -0.00000317    0.00000000    0.00000377
     atom    7 type  1   force =     0.00000162   -0.00000041    0.00000200
     atom    8 type  1   force =    -0.00000159   -0.00000044    0.00000143
     atom    9 type  2   force =     0.00000088   -0.00000000    0.00000468
     atom   10 type  2   force =    -0.00000096   -0.00000000    0.00000373
     atom   11 type  1   force =     0.00000162    0.00000041    0.00000200
     atom   12 type  1   force =    -0.00000159    0.00000044    0.00000143
     atom   13 type  1   force =     0.00000035    0.00000000    0.00000139
     atom   14 type  1   force =    -0.00000037    0.00000000    0.00000145
     atom   15 type  1   force =     0.00000072   -0.00000000    0.00000201
     atom   16 type  1   force =    -0.00000066   -0.00000000    0.00000114
     atom   17 type  2   force =     0.00000050    0.00000000    0.00000001
     atom   18 type  2   force =    -0.00000051    0.00000000    0.00000001
     atom   19 type  1   force =     0.00000094    0.00000035    0.00000000
     atom   20 type  1   force =    -0.00000106   -0.00000037    0.00000000
     atom   21 type  2   force =     0.00000147    0.00000000    0.00000001
     atom   22 type  2   force =    -0.00000156   -0.00000000    0.00000000
     atom   23 type  1   force =     0.00000094   -0.00000035    0.00000000
     atom   24 type  1   force =    -0.00000106    0.00000037    0.00000000
     atom   25 type  1   force =     0.00000072   -0.00000000   -0.00000201
     atom   26 type  1   force =    -0.00000067   -0.00000000   -0.00000114
     atom   27 type  1   force =     0.00000036    0.00000000   -0.00000138
     atom   28 type  1   force =    -0.00000038    0.00000000   -0.00000145
     atom   29 type  2   force =     0.00000326    0.00000000   -0.00000472
     atom   30 type  2   force =    -0.00000317    0.00000000   -0.00000378
     atom   31 type  1   force =     0.00000162   -0.00000041   -0.00000200
     atom   32 type  1   force =    -0.00000159   -0.00000044   -0.00000143
     atom   33 type  2   force =     0.00000089   -0.00000000   -0.00000468
     atom   34 type  2   force =    -0.00000097   -0.00000000   -0.00000373
     atom   35 type  1   force =     0.00000162    0.00000041   -0.00000200
     atom   36 type  1   force =    -0.00000159    0.00000044   -0.00000143
     atom   37 type  1   force =    -0.00000041    0.00000000   -0.00000208
     atom   38 type  1   force =    -0.00000017    0.00000000   -0.00000122
     atom   39 type  1   force =     0.00000103   -0.00000000    0.00000010
     atom   40 type  1   force =    -0.00000093   -0.00000000   -0.00000123
     atom   41 type  3   force =     0.00000020   -0.00000000    0.00000004
     atom   42 type  3   force =     0.00000020    0.00000000   -0.00000004
     atom   43 type  3   force =    -0.00000016    0.00000000    0.00000015
     atom   44 type  3   force =    -0.00000016    0.00000000   -0.00000015
     atom   45 type  3   force =    -0.00000001    0.00000010    0.00000009
     atom   46 type  3   force =    -0.00000001    0.00000010   -0.00000009
     atom   47 type  3   force =    -0.00000001   -0.00000010    0.00000009
     atom   48 type  3   force =    -0.00000001   -0.00000010   -0.00000009

     Total force =     0.000450     Total SCF correction =     0.000017
     Energy error            =      4.8E-07 Ry
     Gradient error          =      9.6E-05 Ry/Bohr

     bfgs converged in  35 scf cycles and  34 bfgs steps
     (criteria: energy <  1.0E-04 Ry, force <  1.0E-04 Ry/Bohr)

     End of BFGS Geometry Optimization

     Final energy             =   -3437.7894375705 Ry

     File /storage/home/mgm6007/ixd4/Maria/Strain0_Files/RuO2-110-0-0124/RuO2-110-0-0124.bfgs deleted, as requested
Begin final coordinates

ATOMIC_POSITIONS (crystal)
O            -0.0006754998        0.5000000000        0.2672558601
O             0.4910701253        0.5000000000        0.2665676051
O            -0.0029640281        0.0000000000        0.2883508522
O             0.4983283270        0.0000000000        0.3068488514
Ru            0.2579645879        0.0000000000        0.3570952756
Ru            0.7389963685        0.0000000000        0.3569957415
O             0.2474919876        0.3099247630        0.3564331989
O             0.7499837582        0.3101358362        0.3558401157
Ru           -0.0011412439        0.5000000000        0.3584014050
Ru            0.4986551233        0.5000000000        0.3551178581
O             0.2474919876        0.6900752370        0.3564331989
O             0.7499837582        0.6898641638        0.3558401157
O            -0.0015593431        0.0000000000        0.4110189517
O             0.4985887832        0.0000000000        0.4117653419
O            -0.0008797764        0.5000000000        0.4459202375
O             0.4992894022        0.5000000000        0.4427696641
Ru           -0.0014245897        0.0000000000        0.5000010000
Ru            0.4985746686        0.0000000000        0.5000010000
O             0.2479082638        0.1898601274        0.5000010000
O             0.7492973023        0.1898003677        0.5000010000
Ru            0.2524861214        0.5000000000        0.5000010000
Ru            0.7453612924        0.5000000000        0.5000010000
O             0.2479082638        0.8101408726        0.5000010000
O             0.7492973023        0.8102006323        0.5000010000
O            -0.0008797764        0.5000000000        0.5540807625
O             0.4992894022        0.5000000000        0.5572313359
O            -0.0015593431        0.0000000000        0.5889820483
O             0.4985887832        0.0000000000        0.5882356581
Ru            0.2579645879        0.0000000000        0.6429057244
Ru            0.7389963685        0.0000000000        0.6430052585
O             0.2474919876        0.3099247630        0.6435678011
O             0.7499837582        0.3101358362        0.6441608843
Ru           -0.0011412439        0.5000000000        0.6415995950
Ru            0.4986551233        0.5000000000        0.6448831419
O             0.2474919876        0.6900752370        0.6435678011
O             0.7499837582        0.6898641638        0.6441608843
O            -0.0029640281        0.0000000000        0.7116511478
O             0.4983283270        0.0000000000        0.6931531486
O            -0.0006754998        0.5000000000        0.7327451399
O             0.4910701253        0.5000000000        0.7334333949
H             0.1458801302        0.5000000000        0.2545123922
H             0.1458801302        0.5000000000        0.7454876078
H             0.6346053615        0.5000000000        0.2514093258
H             0.6346053615        0.5000000000        0.7485906742
H            -0.0052720609        0.1287917617        0.2621663417
H            -0.0052720609        0.1287917617        0.7378336583
H            -0.0052720609        0.8712082383        0.2621663417
H            -0.0052720609        0.8712082383        0.7378336583
End final coordinates



     Writing all to output data dir /storage/home/mgm6007/ixd4/Maria/Strain0_Files/RuO2-110-0-0124/RuO2-110-0-0124.save/
 
     init_run     :    603.52s CPU   1113.31s WALL (       1 calls)
     electrons    :  72701.61s CPU 166545.73s WALL (      35 calls)
     update_pot   :     59.72s CPU     59.77s WALL (      34 calls)
     forces       :     55.80s CPU     57.34s WALL (      35 calls)

     Called by init_run:
     wfcinit      :      0.50s CPU      0.52s WALL (       1 calls)
     potinit      :    413.65s CPU    788.11s WALL (       1 calls)
     hinit0       :    188.87s CPU    324.12s WALL (       1 calls)

     Called by electrons:
     c_bands      :    849.18s CPU    852.96s WALL (     637 calls)
     sum_band     :    200.67s CPU    201.55s WALL (     637 calls)
     v_of_rho     :     98.73s CPU     99.07s WALL (     641 calls)
     newd         :     67.59s CPU     68.61s WALL (     641 calls)
     PAW_pot      :     77.95s CPU     78.04s WALL (     675 calls)
     mix_rho      :    466.66s CPU    468.34s WALL (     637 calls)

     Called by c_bands:
     init_us_2    :      9.48s CPU      9.87s WALL (    1309 calls)
     init_us_2:cp :      9.47s CPU      9.86s WALL (    1309 calls)
     cegterg      :    817.59s CPU    820.82s WALL (     637 calls)

     Called by *egterg:
     cdiaghg      :     95.24s CPU     95.46s WALL (    1814 calls)
     h_psi        :    431.68s CPU    433.86s WALL (    1880 calls)
     s_psi        :     60.10s CPU     60.21s WALL (    1880 calls)
     g_psi        :      1.92s CPU      1.93s WALL (    1242 calls)

     Called by h_psi:
     h_psi:calbec :     62.03s CPU     62.15s WALL (    1880 calls)
     vloc_psi     :    304.47s CPU    306.17s WALL (    1880 calls)
     add_vuspsi   :     61.09s CPU     61.34s WALL (    1880 calls)

     General routines
     calbec       :     98.32s CPU     98.64s WALL (    2691 calls)
     fft          :  17903.36s CPU  17906.40s WALL (    8713 calls)
     ffts         :    169.83s CPU    170.31s WALL (  251983 calls)
     fftw         :    265.68s CPU    267.01s WALL (  738379 calls)
     interpolate  :  17843.03s CPU  17846.12s WALL (     641 calls)
 
     Parallel routines
 
     Environ routines
 
     PWSCF        :     21h29m CPU   2d 1h 5m WALL

 
   This run was terminated on:  23: 5:43  21Jul2023            

=------------------------------------------------------------------------------=
   JOB DONE.
=------------------------------------------------------------------------------=
