
     Program PWSCF v.7.2 starts on 18Jul2023 at 16:10:56 
        Git branch: heads/qe-7.2
        Last git commit: b4c5e8deeb7d1863e7553a87b45f8d22c21926a5
        Last git commit date: Mon Mar 27 16:12:09 2023 +0000
        Last git commit subject: Merge branch 'merge_fix_hubbard' into 'develop'

     This program is part of the open-source Quantum ESPRESSO suite
     for quantum simulation of materials; please cite
         "P. Giannozzi et al., J. Phys.:Condens. Matter 21 395502 (2009);
         "P. Giannozzi et al., J. Phys.:Condens. Matter 29 465901 (2017);
         "P. Giannozzi et al., J. Chem. Phys. 152 154105 (2020);
          URL http://www.quantum-espresso.org", 
     in publications or presentations arising from this work. More details at
     http://www.quantum-espresso.org/quote

     Parallel version (MPI), running on    20 processors

     MPI processes distributed on     1 nodes
     104612 MiB available memory on the printing compute node when the environment starts
 
     Reading input from RuO2-110-0-25.in

     Current dimensions of program PWSCF are:
     Max number of different atomic species (ntypx) = 10
     Max number of k-points (npk) =  40000
     Max angular momentum in pseudopotentials (lmaxx) =  4
 
     Reading input from environ.in:
     * Environ restarting
     * setting up water environment
     * using electronic solvent mode
     * setting boundary derivatives method to SCCS default
     
     file O.pbe-n-kjpaw_psl.0.1.UPF: wavefunction(s)  2P renormalized
     Message from routine setup:
     using ibrav=0 with symmetry is DISCOURAGED, use correct ibrav instead
 
     R & G space division:  proc/nbgrp/npool/nimage =      20
     Subspace diagonalization in iterative solution of the eigenvalue problem:
     one sub-group per band group will be used
     scalapack distributed-memory algorithm (size of sub-group:  2*  2 procs)

 
     Parallelization info
     --------------------
     sticks:   dense  smooth     PW     G-vecs:    dense   smooth      PW
     Min         276     110     29                54830    13868    1873
     Max         277     111     30                54841    13883    1882
     Sum        5527    2209    585              1096679   277485   37533
 
     Using Slab Decomposition
 


     bravais-lattice index     =            0
     lattice parameter (alat)  =      12.3893  a.u.
     unit-cell volume          =    5808.5831 (a.u.)^3
     number of atoms/cell      =           44
     number of atomic types    =            3
     number of electrons       =       364.00
     number of Kohn-Sham states=          218
     kinetic-energy cutoff     =      50.0000  Ry
     charge density cutoff     =     500.0000  Ry
     scf convergence threshold =      1.0E-09
     mixing beta               =       0.7000
     number of iterations used =            8  local-TF  mixing
     energy convergence thresh.=      1.0E-04
     force convergence thresh. =      1.0E-04
     Exchange-correlation= PBE
                           (   1   4   3   4   0   0   0)
     nstep                     =          200


     ================================================================================
 
                                  Environ Setup Summary

     ================================================================================
 
     Please cite

          O. Andreussi, I. Dabo and N. Marzari, J. Chem. Phys. 136, 064102 (2012)

     in publications or presentations arising from this work.

     ================================================================================
 
     Parameters
     ==========

     compensation onset threshold      =               0.1000E+00
     static permittivity               =                    78.30
     surface tension in input (dyn/cm) =                    47.90
     surface tension in internal units =               0.6153E-04
     external pressure in input (GPa)  =                    -0.36
     external pressure in inter. units =              -0.2447E-04

     Solvent Boundary
     ================

     solvent mode                      =               electronic
     derivatives method                =                    chain
     numerical core for derivatives    =                      fft
     switching function adopted        =                     SCCS
     density limit for vacuum region   =               0.5000E-02
     density limit for bulk solvent    =               0.1000E-03

     Electrostatic Setup
     ===================

     electrostatic problem to solve    =              generalized
     numerical solver adopted          =                       cg
     type of auxiliary density adopted =                     none
     numerical core for poisson        =                      fft
     type of pbc corrections           =                parabolic
     numerical core for corrections    =                      1da

     ================================================================================
 

     celldm(1)=  12.389316  celldm(2)=   0.000000  celldm(3)=   0.000000
     celldm(4)=   0.000000  celldm(5)=   0.000000  celldm(6)=   0.000000

     crystal axes: (cart. coord. in units of alat)
               a(1) = (   1.000000   0.000000   0.000000 )  
               a(2) = (   0.000000   0.904766   0.000000 )  
               a(3) = (   0.000000   0.000000   3.375918 )  

     reciprocal axes: (cart. coord. in units 2 pi/alat)
               b(1) = (  1.000000  0.000000  0.000000 )  
               b(2) = (  0.000000  1.105258  0.000000 )  
               b(3) = (  0.000000  0.000000  0.296216 )  


     PseudoPot. # 1 for O  read from file:
     /gpfs/group/ixd4/default/Simon/pseudopotentials/materialscloud/SSSP_1.3.0_PBE_efficiency/O.pbe-n-kjpaw_psl.0.1.UPF
     MD5 check sum: 0234752ac141de4415c5fc33072bef88
     Pseudo is Projector augmented-wave + core cor, Zval =  6.0
     Generated using "atomic" code by A. Dal Corso  v.5.0.99 svn rev. 10869
     Shape of augmentation charge: BESSEL
     Using radial grid of 1095 points,  4 beta functions with: 
                l(1) =   0
                l(2) =   0
                l(3) =   1
                l(4) =   1
     Q(r) pseudized with 0 coefficients 


     PseudoPot. # 2 for Ru read from file:
     /gpfs/group/ixd4/default/Simon/pseudopotentials/materialscloud/SSSP_1.3.0_PBE_efficiency/Ru_ONCV_PBE-1.0.oncvpsp.upf
     MD5 check sum: be037bb81c227cfb9b1461a9f099f4bd
     Pseudo is Norm-conserving, Zval = 16.0
     Generated using ONCVPSP code by D. R. Hamann
     Using radial grid of 1458 points,  6 beta functions with: 
                l(1) =   0
                l(2) =   0
                l(3) =   1
                l(4) =   1
                l(5) =   2
                l(6) =   2

     PseudoPot. # 3 for H  read from file:
     /gpfs/group/ixd4/default/Simon/pseudopotentials/materialscloud/SSSP_1.3.0_PBE_efficiency/H.pbe-rrkjus_psl.1.0.0.UPF
     MD5 check sum: f52b6d4d1c606e5624b1dc7b2218f220
     Pseudo is Ultrasoft, Zval =  1.0
     Generated using "atomic" code by A. Dal Corso  v.5.1
     Using radial grid of  929 points,  2 beta functions with: 
                l(1) =   0
                l(2) =   0
     Q(r) pseudized with 0 coefficients 


     atomic species   valence    mass     pseudopotential
        O              6.00    15.99940     O ( 1.00)
        Ru            16.00   101.07000     Ru( 1.00)
        H              1.00     1.00794     H ( 1.00)

      8 Sym. Ops., with inversion, found ( 4 have fractional translation)



   Cartesian axes

     site n.     atom                  positions (alat units)
         1           O   tau(   1) = (   0.0000000   0.4523832   0.8804697  )
         2           O   tau(   2) = (   0.5000000   0.4523832   0.8804697  )
         3           O   tau(   3) = (   0.0000000   0.0000000   0.9930802  )
         4           O   tau(   4) = (   0.5000000   0.0000000   0.9930802  )
         5           Ru  tau(   5) = (   0.2500000   0.0000000   1.1871684  )
         6           Ru  tau(   6) = (   0.7500000   0.0000000   1.1871684  )
         7           O   tau(   7) = (   0.2500000   0.2770530   1.1871684  )
         8           O   tau(   8) = (   0.7500000   0.2770530   1.1871684  )
         9           Ru  tau(   9) = (   0.0000000   0.4523832   1.1871684  )
        10           Ru  tau(  10) = (   0.5000000   0.4523832   1.1871684  )
        11           O   tau(  11) = (   0.2500000   0.6277133   1.1871684  )
        12           O   tau(  12) = (   0.7500000   0.6277133   1.1871684  )
        13           O   tau(  13) = (   0.0000000   0.0000000   1.3812600  )
        14           O   tau(  14) = (   0.5000000   0.0000000   1.3812600  )
        15           O   tau(  15) = (   0.0000000   0.4523832   1.4938705  )
        16           O   tau(  16) = (   0.5000000   0.4523832   1.4938705  )
        17           Ru  tau(  17) = (   0.0000000   0.0000000   1.6879622  )
        18           Ru  tau(  18) = (   0.5000000   0.0000000   1.6879622  )
        19           O   tau(  19) = (   0.2500000   0.1753301   1.6879622  )
        20           O   tau(  20) = (   0.7500000   0.1753301   1.6879622  )
        21           Ru  tau(  21) = (   0.2500000   0.4523832   1.6879622  )
        22           Ru  tau(  22) = (   0.7500000   0.4523832   1.6879622  )
        23           O   tau(  23) = (   0.2500000   0.7294371   1.6879622  )
        24           O   tau(  24) = (   0.7500000   0.7294371   1.6879622  )
        25           O   tau(  25) = (   0.0000000   0.4523832   1.8820504  )
        26           O   tau(  26) = (   0.5000000   0.4523832   1.8820504  )
        27           O   tau(  27) = (   0.0000000   0.0000000   1.9946609  )
        28           O   tau(  28) = (   0.5000000   0.0000000   1.9946609  )
        29           Ru  tau(  29) = (   0.2500000   0.0000000   2.1887525  )
        30           Ru  tau(  30) = (   0.7500000   0.0000000   2.1887525  )
        31           O   tau(  31) = (   0.2500000   0.2770530   2.1887525  )
        32           O   tau(  32) = (   0.7500000   0.2770530   2.1887525  )
        33           Ru  tau(  33) = (   0.0000000   0.4523832   2.1887525  )
        34           Ru  tau(  34) = (   0.5000000   0.4523832   2.1887525  )
        35           O   tau(  35) = (   0.2500000   0.6277133   2.1887525  )
        36           O   tau(  36) = (   0.7500000   0.6277133   2.1887525  )
        37           O   tau(  37) = (   0.0000000   0.0000000   2.3828441  )
        38           O   tau(  38) = (   0.5000000   0.0000000   2.3828441  )
        39           O   tau(  39) = (   0.0000000   0.4523832   2.4954513  )
        40           O   tau(  40) = (   0.5000000   0.4523832   2.4954513  )
        41           H   tau(  41) = (   0.0000000   0.1033388   0.8786804  )
        42           H   tau(  42) = (   0.0000000   0.1033388   2.4972371  )
        43           H   tau(  43) = (   0.5000000   0.8014275   0.8786804  )
        44           H   tau(  44) = (   0.5000000   0.8014275   2.4972371  )

     number of k points=     1  Marzari-Vanderbilt smearing, width (Ry)=  0.0300
                       cart. coord. in units 2pi/alat
        k(    1) = (   0.2500000   0.2763144   0.0000000), wk =   2.0000000

     Dense  grid:  1096679 G-vectors     FFT dimensions: (  90,  80, 300)

     Smooth grid:   277485 G-vectors     FFT dimensions: (  60,  54, 192)

     Estimated max dynamical RAM per process >     168.00 MB

     Estimated total dynamical RAM >       3.28 GB

     Check: negative core charge=   -0.000001

     Initial potential from superposition of free atoms

     starting charge     363.9933, renormalised to     364.0000

     add environment contribution to local potential
     Polarization accuracy = 7.4E-12, # of iterations =  21

     negative rho (up, down):  3.519E-05 0.000E+00
     Starting wfcs are  236 randomized atomic wfcs
     Checking if some PAW data can be deallocated... 

     total cpu time spent up to now is     2001.7 secs

     per-process dynamical memory:   136.9 Mb

     Self-consistent Calculation

     iteration #  1     ecut=    50.00 Ry     beta= 0.70
     Davidson diagonalization with overlap
     ethr =  1.00E-02,  avg # of iterations =  2.0

     total cpu time spent up to now is     2705.7 secs

     total energy              =   -3429.22202932 Ry
     estimated scf accuracy    <      11.50813559 Ry
     electrostatic embedding   =      -0.00161131 Ry
     cavitation energy         =       0.01964488 Ry
     PV energy                 =      -0.08524503 Ry
     correction to one-el term =     218.90707457 Ry

     iteration #  2     ecut=    50.00 Ry     beta= 0.70
     Davidson diagonalization with overlap
     ethr =  3.16E-03,  avg # of iterations =  2.0

     negative rho (up, down):  1.093E-07 0.000E+00

     total cpu time spent up to now is     3293.5 secs

     total energy              =   -3430.83831707 Ry
     estimated scf accuracy    <      30.01360556 Ry
     electrostatic embedding   =      -0.00210034 Ry
     cavitation energy         =       0.02001875 Ry
     PV energy                 =      -0.08449260 Ry
     correction to one-el term =     218.90769889 Ry

     iteration #  3     ecut=    50.00 Ry     beta= 0.70
     Davidson diagonalization with overlap
     ethr =  3.16E-03,  avg # of iterations =  1.0

     total cpu time spent up to now is     3841.5 secs

     total energy              =   -3432.01233831 Ry
     estimated scf accuracy    <       6.38137850 Ry
     electrostatic embedding   =      -0.00257630 Ry
     cavitation energy         =       0.01964888 Ry
     PV energy                 =      -0.08571058 Ry
     correction to one-el term =     218.90983542 Ry

     iteration #  4     ecut=    50.00 Ry     beta= 0.70
     Davidson diagonalization with overlap
     ethr =  1.75E-03,  avg # of iterations =  1.0

     total cpu time spent up to now is     4764.1 secs

     total energy              =   -3432.16527067 Ry
     estimated scf accuracy    <       0.81074971 Ry
     electrostatic embedding   =      -0.00265649 Ry
     cavitation energy         =       0.01978176 Ry
     PV energy                 =      -0.08526713 Ry
     correction to one-el term =     218.90971926 Ry

     iteration #  5     ecut=    50.00 Ry     beta= 0.70
     Davidson diagonalization with overlap
     ethr =  2.23E-04,  avg # of iterations =  1.0

     add environment contribution to local potential
     Polarization accuracy = 2.0E-12, # of iterations =  35

     total cpu time spent up to now is     5343.2 secs

     total energy              =   -3432.20374596 Ry
     estimated scf accuracy    <       0.08718614 Ry
     electrostatic embedding   =      -0.00271497 Ry
     cavitation energy         =       0.01992572 Ry
     PV energy                 =      -0.08489652 Ry
     correction to one-el term =     218.90963514 Ry

     iteration #  6     ecut=    50.00 Ry     beta= 0.70
     Davidson diagonalization with overlap
     ethr =  2.40E-05,  avg # of iterations =  3.0

     total cpu time spent up to now is     5914.8 secs

     total energy              =   -3432.24970809 Ry
     estimated scf accuracy    <       0.52204604 Ry
     electrostatic embedding   =      -0.03064543 Ry
     cavitation energy         =       0.02035868 Ry
     PV energy                 =      -0.08396709 Ry
     correction to one-el term =     200.51691473 Ry

     iteration #  7     ecut=    50.00 Ry     beta= 0.70
     Davidson diagonalization with overlap
     ethr =  2.40E-05,  avg # of iterations =  1.0

     total cpu time spent up to now is     6376.6 secs

     total energy              =   -3432.23745908 Ry
     estimated scf accuracy    <       0.20130607 Ry
     electrostatic embedding   =      -0.03131807 Ry
     cavitation energy         =       0.02043138 Ry
     PV energy                 =      -0.08380438 Ry
     correction to one-el term =     200.51908406 Ry

     iteration #  8     ecut=    50.00 Ry     beta= 0.70
     Davidson diagonalization with overlap
     ethr =  2.40E-05,  avg # of iterations =  1.0

     add environment contribution to local potential
     Polarization accuracy = 2.2E-12, # of iterations =  38

     total cpu time spent up to now is     6960.3 secs

     total energy              =   -3432.23588953 Ry
     estimated scf accuracy    <       0.02315203 Ry
     electrostatic embedding   =      -0.03372905 Ry
     cavitation energy         =       0.02074090 Ry
     PV energy                 =      -0.08321556 Ry
     correction to one-el term =     200.52704254 Ry

     iteration #  9     ecut=    50.00 Ry     beta= 0.70
     Davidson diagonalization with overlap
     ethr =  6.36E-06,  avg # of iterations =  2.0

     add environment contribution to local potential
     Polarization accuracy = 5.6E-12, # of iterations =  41

     total cpu time spent up to now is     7593.6 secs

     total energy              =   -3432.24818474 Ry
     estimated scf accuracy    <       0.07954289 Ry
     electrostatic embedding   =      -0.05346744 Ry
     cavitation energy         =       0.02103783 Ry
     PV energy                 =      -0.08274910 Ry
     correction to one-el term =     194.64827339 Ry

     iteration # 10     ecut=    50.00 Ry     beta= 0.70
     Davidson diagonalization with overlap
     ethr =  6.36E-06,  avg # of iterations =  2.0

     add environment contribution to local potential
     Polarization accuracy = 4.1E-12, # of iterations =  41

     total cpu time spent up to now is     8296.8 secs

     total energy              =   -3432.25161247 Ry
     estimated scf accuracy    <       0.01703122 Ry
     electrostatic embedding   =      -0.06487777 Ry
     cavitation energy         =       0.02129007 Ry
     PV energy                 =      -0.08238586 Ry
     correction to one-el term =     192.83077143 Ry

     iteration # 11     ecut=    50.00 Ry     beta= 0.70
     Davidson diagonalization with overlap
     ethr =  4.68E-06,  avg # of iterations =  2.0

     add environment contribution to local potential
     Polarization accuracy = 3.7E-12, # of iterations =  42

     total cpu time spent up to now is     8904.4 secs

     total energy              =   -3432.25199674 Ry
     estimated scf accuracy    <       0.00766398 Ry
     electrostatic embedding   =      -0.06740637 Ry
     cavitation energy         =       0.02127290 Ry
     PV energy                 =      -0.08236884 Ry
     correction to one-el term =     192.76291479 Ry

     iteration # 12     ecut=    50.00 Ry     beta= 0.70
     Davidson diagonalization with overlap
     ethr =  2.11E-06,  avg # of iterations =  3.0

     negative rho (up, down):  2.472E-06 0.000E+00

     add environment contribution to local potential
     Polarization accuracy = 6.4E-12, # of iterations =  41

     total cpu time spent up to now is     9445.9 secs

     total energy              =   -3432.25308920 Ry
     estimated scf accuracy    <       0.02167948 Ry
     electrostatic embedding   =      -0.07489237 Ry
     cavitation energy         =       0.02128207 Ry
     PV energy                 =      -0.08229131 Ry
     correction to one-el term =     192.29409450 Ry

     iteration # 13     ecut=    50.00 Ry     beta= 0.70
     Davidson diagonalization with overlap
     ethr =  2.11E-06,  avg # of iterations =  2.0

     negative rho (up, down):  2.622E-07 0.000E+00

     add environment contribution to local potential
     Polarization accuracy = 4.5E-12, # of iterations =  41

     total cpu time spent up to now is    10020.0 secs

     total energy              =   -3432.25282913 Ry
     estimated scf accuracy    <       0.02230175 Ry
     electrostatic embedding   =      -0.07700184 Ry
     cavitation energy         =       0.02114282 Ry
     PV energy                 =      -0.08239499 Ry
     correction to one-el term =     192.76129343 Ry

     iteration # 14     ecut=    50.00 Ry     beta= 0.70
     Davidson diagonalization with overlap
     ethr =  2.11E-06,  avg # of iterations =  2.0

     negative rho (up, down):  1.279E-08 0.000E+00

     add environment contribution to local potential
     Polarization accuracy = 6.4E-12, # of iterations =  41

     total cpu time spent up to now is    10561.7 secs

     total energy              =   -3432.25296672 Ry
     estimated scf accuracy    <       0.00798893 Ry
     electrostatic embedding   =      -0.07554012 Ry
     cavitation energy         =       0.02109872 Ry
     PV energy                 =      -0.08243365 Ry
     correction to one-el term =     193.13702747 Ry

     iteration # 15     ecut=    50.00 Ry     beta= 0.70
     Davidson diagonalization with overlap
     ethr =  2.11E-06,  avg # of iterations =  1.0

     negative rho (up, down):  8.916E-04 0.000E+00

     add environment contribution to local potential
     Polarization accuracy = 4.0E-12, # of iterations =  41

     total cpu time spent up to now is    11240.5 secs

     total energy              =   -3432.25292926 Ry
     estimated scf accuracy    <       0.00275993 Ry
     electrostatic embedding   =      -0.07476996 Ry
     cavitation energy         =       0.02112804 Ry
     PV energy                 =      -0.08239579 Ry
     correction to one-el term =     193.14616863 Ry

     iteration # 16     ecut=    50.00 Ry     beta= 0.70
     Davidson diagonalization with overlap
     ethr =  7.58E-07,  avg # of iterations =  1.0

     negative rho (up, down):  2.990E-04 0.000E+00

     add environment contribution to local potential
     Polarization accuracy = 5.5E-12, # of iterations =  41

     total cpu time spent up to now is    12101.9 secs

     total energy              =   -3432.25313409 Ry
     estimated scf accuracy    <       0.00002658 Ry
     electrostatic embedding   =      -0.07219402 Ry
     cavitation energy         =       0.02108034 Ry
     PV energy                 =      -0.08242259 Ry
     correction to one-el term =     193.65787552 Ry

     iteration # 17     ecut=    50.00 Ry     beta= 0.70
     Davidson diagonalization with overlap
     ethr =  7.30E-09,  avg # of iterations =  3.0

     negative rho (up, down):  3.462E-05 0.000E+00

     add environment contribution to local potential
     Polarization accuracy = 5.7E-12, # of iterations =  41

     total cpu time spent up to now is    12701.1 secs

     total energy              =   -3432.25314411 Ry
     estimated scf accuracy    <       0.00000605 Ry
     electrostatic embedding   =      -0.07182832 Ry
     cavitation energy         =       0.02109705 Ry
     PV energy                 =      -0.08239034 Ry
     correction to one-el term =     193.67648729 Ry

     iteration # 18     ecut=    50.00 Ry     beta= 0.70
     Davidson diagonalization with overlap
     ethr =  1.66E-09,  avg # of iterations =  5.0

     negative rho (up, down):  4.432E-05 0.000E+00

     add environment contribution to local potential
     Polarization accuracy = 5.4E-12, # of iterations =  41

     total cpu time spent up to now is    13213.3 secs

     total energy              =   -3432.25314770 Ry
     estimated scf accuracy    <       0.00000591 Ry
     electrostatic embedding   =      -0.07128481 Ry
     cavitation energy         =       0.02109713 Ry
     PV energy                 =      -0.08238590 Ry
     correction to one-el term =     193.74082429 Ry

     iteration # 19     ecut=    50.00 Ry     beta= 0.70
     Davidson diagonalization with overlap
     ethr =  1.62E-09,  avg # of iterations =  3.0

     negative rho (up, down):  3.512E-05 0.000E+00

     add environment contribution to local potential
     Polarization accuracy = 5.2E-12, # of iterations =  41

     total cpu time spent up to now is    13817.3 secs

     total energy              =   -3432.25314934 Ry
     estimated scf accuracy    <       0.00000177 Ry
     electrostatic embedding   =      -0.07074964 Ry
     cavitation energy         =       0.02109414 Ry
     PV energy                 =      -0.08238337 Ry
     correction to one-el term =     193.82787354 Ry

     iteration # 20     ecut=    50.00 Ry     beta= 0.70
     Davidson diagonalization with overlap
     ethr =  4.87E-10,  avg # of iterations =  3.0

     negative rho (up, down):  8.944E-05 0.000E+00

     add environment contribution to local potential
     Polarization accuracy = 4.8E-12, # of iterations =  41

     total cpu time spent up to now is    14013.5 secs

     total energy              =   -3432.25314850 Ry
     estimated scf accuracy    <       0.00000059 Ry
     electrostatic embedding   =      -0.07048596 Ry
     cavitation energy         =       0.02109399 Ry
     PV energy                 =      -0.08238296 Ry
     correction to one-el term =     193.86752301 Ry

     iteration # 21     ecut=    50.00 Ry     beta= 0.70
     Davidson diagonalization with overlap
     ethr =  1.62E-10,  avg # of iterations =  3.0

     negative rho (up, down):  1.125E-04 0.000E+00

     add environment contribution to local potential
     Polarization accuracy = 3.7E-12, # of iterations =  46

     total cpu time spent up to now is    14160.3 secs

     total energy              =   -3432.25314810 Ry
     estimated scf accuracy    <       0.00000028 Ry
     electrostatic embedding   =      -0.07031429 Ry
     cavitation energy         =       0.02109190 Ry
     PV energy                 =      -0.08238385 Ry
     correction to one-el term =     193.90495177 Ry

     iteration # 22     ecut=    50.00 Ry     beta= 0.70
     Davidson diagonalization with overlap
     ethr =  7.60E-11,  avg # of iterations =  3.0

     negative rho (up, down):  1.431E-04 0.000E+00

     add environment contribution to local potential
     Polarization accuracy = 4.4E-12, # of iterations =  41

     total cpu time spent up to now is    14299.7 secs

     total energy              =   -3432.25314801 Ry
     estimated scf accuracy    <       0.00000025 Ry
     electrostatic embedding   =      -0.07023643 Ry
     cavitation energy         =       0.02109149 Ry
     PV energy                 =      -0.08238477 Ry
     correction to one-el term =     193.91954743 Ry

     iteration # 23     ecut=    50.00 Ry     beta= 0.70
     Davidson diagonalization with overlap
     ethr =  6.77E-11,  avg # of iterations =  3.0

     negative rho (up, down):  1.526E-04 0.000E+00

     add environment contribution to local potential
     Polarization accuracy = 4.1E-12, # of iterations =  41

     total cpu time spent up to now is    14425.8 secs

     total energy              =   -3432.25314822 Ry
     estimated scf accuracy    <       0.00000018 Ry
     electrostatic embedding   =      -0.07021424 Ry
     cavitation energy         =       0.02109103 Ry
     PV energy                 =      -0.08238532 Ry
     correction to one-el term =     193.92568581 Ry

     iteration # 24     ecut=    50.00 Ry     beta= 0.70
     Davidson diagonalization with overlap
     ethr =  5.01E-11,  avg # of iterations =  2.0

     negative rho (up, down):  1.495E-04 0.000E+00

     add environment contribution to local potential
     Polarization accuracy = 3.9E-12, # of iterations =  41

     total cpu time spent up to now is    14587.2 secs

     total energy              =   -3432.25314863 Ry
     estimated scf accuracy    <       0.00000018 Ry
     electrostatic embedding   =      -0.07018361 Ry
     cavitation energy         =       0.02109082 Ry
     PV energy                 =      -0.08238593 Ry
     correction to one-el term =     193.93063852 Ry

     iteration # 25     ecut=    50.00 Ry     beta= 0.70
     Davidson diagonalization with overlap
     ethr =  5.01E-11,  avg # of iterations =  1.0

     negative rho (up, down):  1.476E-04 0.000E+00

     add environment contribution to local potential
     Polarization accuracy = 3.8E-12, # of iterations =  41

     total cpu time spent up to now is    14716.7 secs

     total energy              =   -3432.25314941 Ry
     estimated scf accuracy    <       0.00000017 Ry
     electrostatic embedding   =      -0.07018219 Ry
     cavitation energy         =       0.02109081 Ry
     PV energy                 =      -0.08238643 Ry
     correction to one-el term =     193.93026686 Ry

     iteration # 26     ecut=    50.00 Ry     beta= 0.70
     Davidson diagonalization with overlap
     ethr =  4.59E-11,  avg # of iterations =  1.0

     negative rho (up, down):  1.325E-04 0.000E+00

     add environment contribution to local potential
     Polarization accuracy = 5.8E-12, # of iterations =  41

     total cpu time spent up to now is    14831.3 secs

     total energy              =   -3432.25315184 Ry
     estimated scf accuracy    <       0.00000017 Ry
     electrostatic embedding   =      -0.07017389 Ry
     cavitation energy         =       0.02109076 Ry
     PV energy                 =      -0.08238704 Ry
     correction to one-el term =     193.93125134 Ry

     iteration # 27     ecut=    50.00 Ry     beta= 0.70
     Davidson diagonalization with overlap
     ethr =  4.59E-11,  avg # of iterations =  2.0

     negative rho (up, down):  1.627E-04 0.000E+00

     add environment contribution to local potential
     Polarization accuracy = 7.8E-12, # of iterations =  41

     total cpu time spent up to now is    14963.1 secs

     total energy              =   -3432.25315795 Ry
     estimated scf accuracy    <       0.00000017 Ry
     electrostatic embedding   =      -0.07019540 Ry
     cavitation energy         =       0.02109094 Ry
     PV energy                 =      -0.08238695 Ry
     correction to one-el term =     193.92691718 Ry

     iteration # 28     ecut=    50.00 Ry     beta= 0.70
     Davidson diagonalization with overlap
     ethr =  4.59E-11,  avg # of iterations =  2.0

     negative rho (up, down):  1.503E-04 0.000E+00

     add environment contribution to local potential
     Polarization accuracy = 8.4E-12, # of iterations =  41

     total cpu time spent up to now is    15107.5 secs

     total energy              =   -3432.25316907 Ry
     estimated scf accuracy    <       0.00000011 Ry
     electrostatic embedding   =      -0.07021942 Ry
     cavitation energy         =       0.02109081 Ry
     PV energy                 =      -0.08238681 Ry
     correction to one-el term =     193.92610440 Ry

     iteration # 29     ecut=    50.00 Ry     beta= 0.70
     Davidson diagonalization with overlap
     ethr =  2.98E-11,  avg # of iterations = 18.0

     negative rho (up, down):  1.511E-04 0.000E+00

     add environment contribution to local potential
     Polarization accuracy = 8.3E-12, # of iterations =  41

     total cpu time spent up to now is    15232.0 secs

     total energy              =   -3432.25317943 Ry
     estimated scf accuracy    <       0.00000010 Ry
     electrostatic embedding   =      -0.07022066 Ry
     cavitation energy         =       0.02109094 Ry
     PV energy                 =      -0.08238638 Ry
     correction to one-el term =     193.92519626 Ry

     iteration # 30     ecut=    50.00 Ry     beta= 0.70
     Davidson diagonalization with overlap
     ethr =  2.86E-11,  avg # of iterations =  2.0

     negative rho (up, down):  1.461E-04 0.000E+00

     add environment contribution to local potential
     Polarization accuracy = 8.2E-12, # of iterations =  40

     total cpu time spent up to now is    15360.3 secs

     total energy              =   -3432.25318110 Ry
     estimated scf accuracy    <       0.00000010 Ry
     electrostatic embedding   =      -0.07020713 Ry
     cavitation energy         =       0.02109091 Ry
     PV energy                 =      -0.08238628 Ry
     correction to one-el term =     193.92716892 Ry

     iteration # 31     ecut=    50.00 Ry     beta= 0.70
     Davidson diagonalization with overlap
     ethr =  2.66E-11,  avg # of iterations =  1.0

     negative rho (up, down):  1.435E-04 0.000E+00

     add environment contribution to local potential
     Polarization accuracy = 8.2E-12, # of iterations =  41

     total cpu time spent up to now is    15487.8 secs

     total energy              =   -3432.25318212 Ry
     estimated scf accuracy    <       0.00000010 Ry
     electrostatic embedding   =      -0.07020290 Ry
     cavitation energy         =       0.02109097 Ry
     PV energy                 =      -0.08238605 Ry
     correction to one-el term =     193.92725073 Ry

     iteration # 32     ecut=    50.00 Ry     beta= 0.70
     Davidson diagonalization with overlap
     ethr =  2.64E-11,  avg # of iterations =  1.0

     negative rho (up, down):  1.429E-04 0.000E+00

     add environment contribution to local potential
     Polarization accuracy = 8.2E-12, # of iterations =  41

     total cpu time spent up to now is    15654.2 secs

     total energy              =   -3432.25318230 Ry
     estimated scf accuracy    <       0.00000010 Ry
     electrostatic embedding   =      -0.07019489 Ry
     cavitation energy         =       0.02109098 Ry
     PV energy                 =      -0.08238605 Ry
     correction to one-el term =     193.92814518 Ry

     iteration # 33     ecut=    50.00 Ry     beta= 0.70
     Davidson diagonalization with overlap
     ethr =  2.61E-11,  avg # of iterations =  1.0

     negative rho (up, down):  1.433E-04 0.000E+00

     add environment contribution to local potential
     Polarization accuracy = 8.2E-12, # of iterations =  41

     total cpu time spent up to now is    15776.9 secs

     total energy              =   -3432.25318239 Ry
     estimated scf accuracy    <       0.00000010 Ry
     electrostatic embedding   =      -0.07019316 Ry
     cavitation energy         =       0.02109098 Ry
     PV energy                 =      -0.08238605 Ry
     correction to one-el term =     193.92834342 Ry

     iteration # 34     ecut=    50.00 Ry     beta= 0.70
     Davidson diagonalization with overlap
     ethr =  2.61E-11,  avg # of iterations =  1.0

     negative rho (up, down):  1.433E-04 0.000E+00

     add environment contribution to local potential
     Polarization accuracy = 8.2E-12, # of iterations =  41

     total cpu time spent up to now is    15911.8 secs

     total energy              =   -3432.25318235 Ry
     estimated scf accuracy    <       0.00000010 Ry
     electrostatic embedding   =      -0.07019259 Ry
     cavitation energy         =       0.02109098 Ry
     PV energy                 =      -0.08238605 Ry
     correction to one-el term =     193.92845514 Ry

     iteration # 35     ecut=    50.00 Ry     beta= 0.70
     Davidson diagonalization with overlap
     ethr =  2.61E-11,  avg # of iterations =  1.0

     negative rho (up, down):  1.437E-04 0.000E+00

     add environment contribution to local potential
     Polarization accuracy = 8.2E-12, # of iterations =  41

     total cpu time spent up to now is    16052.3 secs

     total energy              =   -3432.25318232 Ry
     estimated scf accuracy    <       0.00000010 Ry
     electrostatic embedding   =      -0.07019213 Ry
     cavitation energy         =       0.02109098 Ry
     PV energy                 =      -0.08238607 Ry
     correction to one-el term =     193.92851635 Ry

     iteration # 36     ecut=    50.00 Ry     beta= 0.70
     Davidson diagonalization with overlap
     ethr =  2.61E-11,  avg # of iterations =  1.0

     negative rho (up, down):  1.438E-04 0.000E+00

     add environment contribution to local potential
     Polarization accuracy = 8.2E-12, # of iterations =  41

     total cpu time spent up to now is    16199.3 secs

     total energy              =   -3432.25318234 Ry
     estimated scf accuracy    <       0.00000010 Ry
     electrostatic embedding   =      -0.07019295 Ry
     cavitation energy         =       0.02109097 Ry
     PV energy                 =      -0.08238608 Ry
     correction to one-el term =     193.92844553 Ry

     iteration # 37     ecut=    50.00 Ry     beta= 0.70
     Davidson diagonalization with overlap
     ethr =  2.61E-11,  avg # of iterations =  1.0

     negative rho (up, down):  1.436E-04 0.000E+00

     add environment contribution to local potential
     Polarization accuracy = 8.1E-12, # of iterations =  41

     total cpu time spent up to now is    16335.1 secs

     total energy              =   -3432.25318234 Ry
     estimated scf accuracy    <       0.00000010 Ry
     electrostatic embedding   =      -0.07019325 Ry
     cavitation energy         =       0.02109097 Ry
     PV energy                 =      -0.08238608 Ry
     correction to one-el term =     193.92841596 Ry

     iteration # 38     ecut=    50.00 Ry     beta= 0.70
     Davidson diagonalization with overlap
     ethr =  2.61E-11,  avg # of iterations =  1.0

     negative rho (up, down):  1.435E-04 0.000E+00

     add environment contribution to local potential
     Polarization accuracy = 8.1E-12, # of iterations =  41

     total cpu time spent up to now is    16466.5 secs

     total energy              =   -3432.25318234 Ry
     estimated scf accuracy    <       0.00000010 Ry
     electrostatic embedding   =      -0.07019296 Ry
     cavitation energy         =       0.02109097 Ry
     PV energy                 =      -0.08238608 Ry
     correction to one-el term =     193.92843927 Ry

     iteration # 39     ecut=    50.00 Ry     beta= 0.70
     Davidson diagonalization with overlap
     ethr =  2.61E-11,  avg # of iterations =  1.0

     negative rho (up, down):  1.434E-04 0.000E+00

     add environment contribution to local potential
     Polarization accuracy = 8.2E-12, # of iterations =  41

     total cpu time spent up to now is    16599.6 secs

     total energy              =   -3432.25318236 Ry
     estimated scf accuracy    <       0.00000010 Ry
     electrostatic embedding   =      -0.07019316 Ry
     cavitation energy         =       0.02109097 Ry
     PV energy                 =      -0.08238608 Ry
     correction to one-el term =     193.92840270 Ry

     iteration # 40     ecut=    50.00 Ry     beta= 0.70
     Davidson diagonalization with overlap
     ethr =  2.61E-11,  avg # of iterations =  1.0

     negative rho (up, down):  1.434E-04 0.000E+00

     add environment contribution to local potential
     Polarization accuracy = 8.1E-12, # of iterations =  41

     total cpu time spent up to now is    16716.0 secs

     total energy              =   -3432.25318235 Ry
     estimated scf accuracy    <       0.00000010 Ry
     electrostatic embedding   =      -0.07019295 Ry
     cavitation energy         =       0.02109097 Ry
     PV energy                 =      -0.08238608 Ry
     correction to one-el term =     193.92842368 Ry

     iteration # 41     ecut=    50.00 Ry     beta= 0.70
     Davidson diagonalization with overlap
     ethr =  2.61E-11,  avg # of iterations =  1.0

     negative rho (up, down):  1.435E-04 0.000E+00

     add environment contribution to local potential
     Polarization accuracy = 8.1E-12, # of iterations =  41

     total cpu time spent up to now is    16838.4 secs

     total energy              =   -3432.25318234 Ry
     estimated scf accuracy    <       0.00000010 Ry
     electrostatic embedding   =      -0.07019279 Ry
     cavitation energy         =       0.02109097 Ry
     PV energy                 =      -0.08238608 Ry
     correction to one-el term =     193.92844083 Ry

     iteration # 42     ecut=    50.00 Ry     beta= 0.70
     Davidson diagonalization with overlap
     ethr =  2.61E-11,  avg # of iterations =  1.0

     negative rho (up, down):  1.435E-04 0.000E+00

     add environment contribution to local potential
     Polarization accuracy = 8.1E-12, # of iterations =  41

     total cpu time spent up to now is    16977.4 secs

     total energy              =   -3432.25318233 Ry
     estimated scf accuracy    <       0.00000010 Ry
     electrostatic embedding   =      -0.07019274 Ry
     cavitation energy         =       0.02109097 Ry
     PV energy                 =      -0.08238608 Ry
     correction to one-el term =     193.92845207 Ry

     iteration # 43     ecut=    50.00 Ry     beta= 0.70
     Davidson diagonalization with overlap
     ethr =  2.61E-11,  avg # of iterations =  1.0

     negative rho (up, down):  1.436E-04 0.000E+00

     add environment contribution to local potential
     Polarization accuracy = 8.1E-12, # of iterations =  41

     total cpu time spent up to now is    17113.9 secs

     total energy              =   -3432.25318231 Ry
     estimated scf accuracy    <       0.00000010 Ry
     electrostatic embedding   =      -0.07019270 Ry
     cavitation energy         =       0.02109097 Ry
     PV energy                 =      -0.08238608 Ry
     correction to one-el term =     193.92846363 Ry

     iteration # 44     ecut=    50.00 Ry     beta= 0.70
     Davidson diagonalization with overlap
     ethr =  2.61E-11,  avg # of iterations =  1.0

     negative rho (up, down):  1.436E-04 0.000E+00

     add environment contribution to local potential
     Polarization accuracy = 8.1E-12, # of iterations =  41

     total cpu time spent up to now is    17239.0 secs

     total energy              =   -3432.25318230 Ry
     estimated scf accuracy    <       0.00000010 Ry
     electrostatic embedding   =      -0.07019257 Ry
     cavitation energy         =       0.02109097 Ry
     PV energy                 =      -0.08238607 Ry
     correction to one-el term =     193.92848203 Ry

     iteration # 45     ecut=    50.00 Ry     beta= 0.70
     Davidson diagonalization with overlap
     ethr =  2.61E-11,  avg # of iterations =  1.0

     negative rho (up, down):  1.436E-04 0.000E+00

     add environment contribution to local potential
     Polarization accuracy = 8.1E-12, # of iterations =  41

     total cpu time spent up to now is    17362.7 secs

     total energy              =   -3432.25318229 Ry
     estimated scf accuracy    <       0.00000010 Ry
     electrostatic embedding   =      -0.07019255 Ry
     cavitation energy         =       0.02109097 Ry
     PV energy                 =      -0.08238608 Ry
     correction to one-el term =     193.92848798 Ry

     iteration # 46     ecut=    50.00 Ry     beta= 0.70
     Davidson diagonalization with overlap
     ethr =  2.61E-11,  avg # of iterations =  1.0

     negative rho (up, down):  1.436E-04 0.000E+00

     add environment contribution to local potential
     Polarization accuracy = 8.1E-12, # of iterations =  41

     total cpu time spent up to now is    17509.7 secs

     total energy              =   -3432.25318227 Ry
     estimated scf accuracy    <       0.00000010 Ry
     electrostatic embedding   =      -0.07019252 Ry
     cavitation energy         =       0.02109097 Ry
     PV energy                 =      -0.08238608 Ry
     correction to one-el term =     193.92849493 Ry

     iteration # 47     ecut=    50.00 Ry     beta= 0.70
     Davidson diagonalization with overlap
     ethr =  2.61E-11,  avg # of iterations =  1.0

     negative rho (up, down):  1.436E-04 0.000E+00

     add environment contribution to local potential
     Polarization accuracy = 8.1E-12, # of iterations =  41

     total cpu time spent up to now is    17656.7 secs

     total energy              =   -3432.25318226 Ry
     estimated scf accuracy    <       0.00000010 Ry
     electrostatic embedding   =      -0.07019248 Ry
     cavitation energy         =       0.02109097 Ry
     PV energy                 =      -0.08238608 Ry
     correction to one-el term =     193.92849751 Ry

     iteration # 48     ecut=    50.00 Ry     beta= 0.70
     Davidson diagonalization with overlap
     ethr =  2.61E-11,  avg # of iterations =  1.0

     negative rho (up, down):  1.435E-04 0.000E+00

     add environment contribution to local potential
     Polarization accuracy = 9.0E-12, # of iterations =  41

     total cpu time spent up to now is    17789.1 secs

     total energy              =   -3432.25318225 Ry
     estimated scf accuracy    <       0.00000010 Ry
     electrostatic embedding   =      -0.07019246 Ry
     cavitation energy         =       0.02109097 Ry
     PV energy                 =      -0.08238608 Ry
     correction to one-el term =     193.92849917 Ry

     iteration # 49     ecut=    50.00 Ry     beta= 0.70
     Davidson diagonalization with overlap
     ethr =  2.61E-11,  avg # of iterations =  1.0

     negative rho (up, down):  1.436E-04 0.000E+00

     add environment contribution to local potential
     Polarization accuracy = 8.1E-12, # of iterations =  41

     total cpu time spent up to now is    17903.8 secs

     total energy              =   -3432.25318223 Ry
     estimated scf accuracy    <       0.00000010 Ry
     electrostatic embedding   =      -0.07019253 Ry
     cavitation energy         =       0.02109097 Ry
     PV energy                 =      -0.08238608 Ry
     correction to one-el term =     193.92848985 Ry

     iteration # 50     ecut=    50.00 Ry     beta= 0.70
     Davidson diagonalization with overlap
     ethr =  2.61E-11,  avg # of iterations =  1.0

     negative rho (up, down):  1.436E-04 0.000E+00

     add environment contribution to local potential
     Polarization accuracy = 8.1E-12, # of iterations =  41

     total cpu time spent up to now is    18030.9 secs

     total energy              =   -3432.25318223 Ry
     estimated scf accuracy    <       0.00000010 Ry
     electrostatic embedding   =      -0.07019255 Ry
     cavitation energy         =       0.02109097 Ry
     PV energy                 =      -0.08238608 Ry
     correction to one-el term =     193.92848771 Ry

     iteration # 51     ecut=    50.00 Ry     beta= 0.70
     Davidson diagonalization with overlap
     ethr =  2.61E-11,  avg # of iterations =  1.0

     negative rho (up, down):  1.435E-04 0.000E+00

     add environment contribution to local potential
     Polarization accuracy = 8.1E-12, # of iterations =  41

     total cpu time spent up to now is    18175.9 secs

     total energy              =   -3432.25318222 Ry
     estimated scf accuracy    <       0.00000010 Ry
     electrostatic embedding   =      -0.07019258 Ry
     cavitation energy         =       0.02109097 Ry
     PV energy                 =      -0.08238608 Ry
     correction to one-el term =     193.92848254 Ry

     iteration # 52     ecut=    50.00 Ry     beta= 0.70
     Davidson diagonalization with overlap
     ethr =  2.61E-11,  avg # of iterations =  1.0

     negative rho (up, down):  1.435E-04 0.000E+00

     add environment contribution to local potential
     Polarization accuracy = 8.1E-12, # of iterations =  41

     total cpu time spent up to now is    18329.4 secs

     total energy              =   -3432.25318222 Ry
     estimated scf accuracy    <       0.00000010 Ry
     electrostatic embedding   =      -0.07019259 Ry
     cavitation energy         =       0.02109097 Ry
     PV energy                 =      -0.08238608 Ry
     correction to one-el term =     193.92848037 Ry

     iteration # 53     ecut=    50.00 Ry     beta= 0.70
     Davidson diagonalization with overlap
     ethr =  2.61E-11,  avg # of iterations =  1.0

     negative rho (up, down):  1.435E-04 0.000E+00

     add environment contribution to local potential
     Polarization accuracy = 8.1E-12, # of iterations =  41

     total cpu time spent up to now is    18469.1 secs

     total energy              =   -3432.25318222 Ry
     estimated scf accuracy    <       0.00000010 Ry
     electrostatic embedding   =      -0.07019260 Ry
     cavitation energy         =       0.02109097 Ry
     PV energy                 =      -0.08238608 Ry
     correction to one-el term =     193.92847904 Ry

     iteration # 54     ecut=    50.00 Ry     beta= 0.70
     Davidson diagonalization with overlap
     ethr =  2.61E-11,  avg # of iterations =  1.0

     negative rho (up, down):  1.435E-04 0.000E+00

     add environment contribution to local potential
     Polarization accuracy = 8.1E-12, # of iterations =  41

     total cpu time spent up to now is    18607.3 secs

     total energy              =   -3432.25318221 Ry
     estimated scf accuracy    <       0.00000010 Ry
     electrostatic embedding   =      -0.07019258 Ry
     cavitation energy         =       0.02109097 Ry
     PV energy                 =      -0.08238608 Ry
     correction to one-el term =     193.92848045 Ry

     iteration # 55     ecut=    50.00 Ry     beta= 0.70
     Davidson diagonalization with overlap
     ethr =  2.61E-11,  avg # of iterations =  1.0

     negative rho (up, down):  1.436E-04 0.000E+00

     add environment contribution to local potential
     Polarization accuracy = 8.1E-12, # of iterations =  41

     total cpu time spent up to now is    18732.1 secs

     total energy              =   -3432.25318221 Ry
     estimated scf accuracy    <       0.00000010 Ry
     electrostatic embedding   =      -0.07019257 Ry
     cavitation energy         =       0.02109097 Ry
     PV energy                 =      -0.08238608 Ry
     correction to one-el term =     193.92848230 Ry

     iteration # 56     ecut=    50.00 Ry     beta= 0.70
     Davidson diagonalization with overlap
     ethr =  2.61E-11,  avg # of iterations =  1.0

     negative rho (up, down):  1.436E-04 0.000E+00

     add environment contribution to local potential
     Polarization accuracy = 8.1E-12, # of iterations =  41

     total cpu time spent up to now is    18856.9 secs

     total energy              =   -3432.25318221 Ry
     estimated scf accuracy    <       0.00000010 Ry
     electrostatic embedding   =      -0.07019257 Ry
     cavitation energy         =       0.02109097 Ry
     PV energy                 =      -0.08238608 Ry
     correction to one-el term =     193.92848230 Ry

     iteration # 57     ecut=    50.00 Ry     beta= 0.70
     Davidson diagonalization with overlap
     ethr =  2.61E-11,  avg # of iterations =  1.0

     negative rho (up, down):  1.436E-04 0.000E+00

     add environment contribution to local potential
     Polarization accuracy = 8.1E-12, # of iterations =  41

     total cpu time spent up to now is    18985.4 secs

     total energy              =   -3432.25318221 Ry
     estimated scf accuracy    <       0.00000010 Ry
     electrostatic embedding   =      -0.07019257 Ry
     cavitation energy         =       0.02109097 Ry
     PV energy                 =      -0.08238608 Ry
     correction to one-el term =     193.92848256 Ry

     iteration # 58     ecut=    50.00 Ry     beta= 0.70
     Davidson diagonalization with overlap
     ethr =  2.61E-11,  avg # of iterations =  1.0

     negative rho (up, down):  1.436E-04 0.000E+00

     add environment contribution to local potential
     Polarization accuracy = 8.1E-12, # of iterations =  41

     total cpu time spent up to now is    19110.7 secs

     total energy              =   -3432.25318221 Ry
     estimated scf accuracy    <       0.00000010 Ry
     electrostatic embedding   =      -0.07019257 Ry
     cavitation energy         =       0.02109097 Ry
     PV energy                 =      -0.08238608 Ry
     correction to one-el term =     193.92848256 Ry

     iteration # 59     ecut=    50.00 Ry     beta= 0.70
     Davidson diagonalization with overlap
     ethr =  2.61E-11,  avg # of iterations =  1.0

     negative rho (up, down):  1.436E-04 0.000E+00

     add environment contribution to local potential
     Polarization accuracy = 8.1E-12, # of iterations =  41

     total cpu time spent up to now is    19254.0 secs

     total energy              =   -3432.25318221 Ry
     estimated scf accuracy    <       0.00000010 Ry
     electrostatic embedding   =      -0.07019257 Ry
     cavitation energy         =       0.02109097 Ry
     PV energy                 =      -0.08238608 Ry
     correction to one-el term =     193.92848254 Ry

     iteration # 60     ecut=    50.00 Ry     beta= 0.70
     Davidson diagonalization with overlap
     ethr =  2.61E-11,  avg # of iterations =  1.0

     negative rho (up, down):  1.436E-04 0.000E+00

     add environment contribution to local potential
     Polarization accuracy = 8.1E-12, # of iterations =  41

     total cpu time spent up to now is    19386.5 secs

     total energy              =   -3432.25318221 Ry
     estimated scf accuracy    <       0.00000010 Ry
     electrostatic embedding   =      -0.07019257 Ry
     cavitation energy         =       0.02109097 Ry
     PV energy                 =      -0.08238608 Ry
     correction to one-el term =     193.92848237 Ry

     iteration # 61     ecut=    50.00 Ry     beta= 0.70
     Davidson diagonalization with overlap
     ethr =  2.61E-11,  avg # of iterations =  1.0

     negative rho (up, down):  1.436E-04 0.000E+00

     add environment contribution to local potential
     Polarization accuracy = 8.1E-12, # of iterations =  41

     total cpu time spent up to now is    19528.0 secs

     total energy              =   -3432.25318221 Ry
     estimated scf accuracy    <       0.00000010 Ry
     electrostatic embedding   =      -0.07019258 Ry
     cavitation energy         =       0.02109097 Ry
     PV energy                 =      -0.08238608 Ry
     correction to one-el term =     193.92848214 Ry

     iteration # 62     ecut=    50.00 Ry     beta= 0.70
     Davidson diagonalization with overlap
     ethr =  2.61E-11,  avg # of iterations =  1.0

     negative rho (up, down):  1.436E-04 0.000E+00

     add environment contribution to local potential
     Polarization accuracy = 8.1E-12, # of iterations =  41

     total cpu time spent up to now is    19653.0 secs

     total energy              =   -3432.25318221 Ry
     estimated scf accuracy    <       0.00000010 Ry
     electrostatic embedding   =      -0.07019258 Ry
     cavitation energy         =       0.02109097 Ry
     PV energy                 =      -0.08238608 Ry
     correction to one-el term =     193.92848221 Ry

     iteration # 63     ecut=    50.00 Ry     beta= 0.70
     Davidson diagonalization with overlap
     ethr =  2.61E-11,  avg # of iterations =  1.0

     negative rho (up, down):  1.436E-04 0.000E+00

     add environment contribution to local potential
     Polarization accuracy = 8.1E-12, # of iterations =  41

     total cpu time spent up to now is    19795.7 secs

     total energy              =   -3432.25318221 Ry
     estimated scf accuracy    <       0.00000010 Ry
     electrostatic embedding   =      -0.07019258 Ry
     cavitation energy         =       0.02109097 Ry
     PV energy                 =      -0.08238608 Ry
     correction to one-el term =     193.92848210 Ry

     iteration # 64     ecut=    50.00 Ry     beta= 0.70
     Davidson diagonalization with overlap
     ethr =  2.61E-11,  avg # of iterations =  1.0

     negative rho (up, down):  1.436E-04 0.000E+00

     add environment contribution to local potential
     Polarization accuracy = 8.1E-12, # of iterations =  41

     total cpu time spent up to now is    19931.3 secs

     total energy              =   -3432.25318221 Ry
     estimated scf accuracy    <       0.00000010 Ry
     electrostatic embedding   =      -0.07019258 Ry
     cavitation energy         =       0.02109097 Ry
     PV energy                 =      -0.08238608 Ry
     correction to one-el term =     193.92848202 Ry

     iteration # 65     ecut=    50.00 Ry     beta= 0.70
     Davidson diagonalization with overlap
     ethr =  2.61E-11,  avg # of iterations =  1.0

     negative rho (up, down):  1.436E-04 0.000E+00

     add environment contribution to local potential
     Polarization accuracy = 7.4E-12, # of iterations =  42

     total cpu time spent up to now is    20052.2 secs

     total energy              =   -3432.25318221 Ry
     estimated scf accuracy    <       0.00000010 Ry
     electrostatic embedding   =      -0.07019258 Ry
     cavitation energy         =       0.02109097 Ry
     PV energy                 =      -0.08238608 Ry
     correction to one-el term =     193.92848208 Ry

     iteration # 66     ecut=    50.00 Ry     beta= 0.70
     Davidson diagonalization with overlap
     ethr =  2.61E-11,  avg # of iterations =  1.0

     negative rho (up, down):  1.436E-04 0.000E+00

     add environment contribution to local potential
     Polarization accuracy = 8.1E-12, # of iterations =  41

     total cpu time spent up to now is    20191.4 secs

     total energy              =   -3432.25318221 Ry
     estimated scf accuracy    <       0.00000010 Ry
     electrostatic embedding   =      -0.07019258 Ry
     cavitation energy         =       0.02109097 Ry
     PV energy                 =      -0.08238608 Ry
     correction to one-el term =     193.92848221 Ry

     iteration # 67     ecut=    50.00 Ry     beta= 0.70
     Davidson diagonalization with overlap
     ethr =  2.61E-11,  avg # of iterations =  1.0

     negative rho (up, down):  1.436E-04 0.000E+00

     add environment contribution to local potential
     Polarization accuracy = 8.1E-12, # of iterations =  41

     total cpu time spent up to now is    20311.3 secs

     total energy              =   -3432.25318221 Ry
     estimated scf accuracy    <       0.00000010 Ry
     electrostatic embedding   =      -0.07019257 Ry
     cavitation energy         =       0.02109097 Ry
     PV energy                 =      -0.08238608 Ry
     correction to one-el term =     193.92848258 Ry

     iteration # 68     ecut=    50.00 Ry     beta= 0.70
     Davidson diagonalization with overlap
     ethr =  2.61E-11,  avg # of iterations =  1.0

     negative rho (up, down):  1.436E-04 0.000E+00

     add environment contribution to local potential
     Polarization accuracy = 8.1E-12, # of iterations =  41

     total cpu time spent up to now is    20428.5 secs

     total energy              =   -3432.25318221 Ry
     estimated scf accuracy    <       0.00000010 Ry
     electrostatic embedding   =      -0.07019257 Ry
     cavitation energy         =       0.02109097 Ry
     PV energy                 =      -0.08238608 Ry
     correction to one-el term =     193.92848242 Ry

     iteration # 69     ecut=    50.00 Ry     beta= 0.70
     Davidson diagonalization with overlap
     ethr =  2.61E-11,  avg # of iterations =  1.0

     negative rho (up, down):  1.436E-04 0.000E+00

     add environment contribution to local potential
     Polarization accuracy = 8.1E-12, # of iterations =  41

     total cpu time spent up to now is    20554.8 secs

     total energy              =   -3432.25318221 Ry
     estimated scf accuracy    <       0.00000010 Ry
     electrostatic embedding   =      -0.07019257 Ry
     cavitation energy         =       0.02109097 Ry
     PV energy                 =      -0.08238608 Ry
     correction to one-el term =     193.92848234 Ry

     iteration # 70     ecut=    50.00 Ry     beta= 0.70
     Davidson diagonalization with overlap
     ethr =  2.61E-11,  avg # of iterations =  1.0

     negative rho (up, down):  1.436E-04 0.000E+00

     add environment contribution to local potential
     Polarization accuracy = 8.1E-12, # of iterations =  41

     total cpu time spent up to now is    20672.1 secs

     total energy              =   -3432.25318221 Ry
     estimated scf accuracy    <       0.00000010 Ry
     electrostatic embedding   =      -0.07019257 Ry
     cavitation energy         =       0.02109097 Ry
     PV energy                 =      -0.08238608 Ry
     correction to one-el term =     193.92848236 Ry

     iteration # 71     ecut=    50.00 Ry     beta= 0.70
     Davidson diagonalization with overlap
     ethr =  2.61E-11,  avg # of iterations =  1.0

     negative rho (up, down):  1.436E-04 0.000E+00

     add environment contribution to local potential
     Polarization accuracy = 8.1E-12, # of iterations =  41

     total cpu time spent up to now is    20809.0 secs

     total energy              =   -3432.25318221 Ry
     estimated scf accuracy    <       0.00000010 Ry
     electrostatic embedding   =      -0.07019257 Ry
     cavitation energy         =       0.02109097 Ry
     PV energy                 =      -0.08238608 Ry
     correction to one-el term =     193.92848255 Ry

     iteration # 72     ecut=    50.00 Ry     beta= 0.70
     Davidson diagonalization with overlap
     ethr =  2.61E-11,  avg # of iterations =  1.0

     negative rho (up, down):  1.436E-04 0.000E+00

     add environment contribution to local potential
     Polarization accuracy = 8.1E-12, # of iterations =  41

     total cpu time spent up to now is    20960.4 secs

     total energy              =   -3432.25318221 Ry
     estimated scf accuracy    <       0.00000010 Ry
     electrostatic embedding   =      -0.07019257 Ry
     cavitation energy         =       0.02109097 Ry
     PV energy                 =      -0.08238608 Ry
     correction to one-el term =     193.92848253 Ry

     iteration # 73     ecut=    50.00 Ry     beta= 0.70
     Davidson diagonalization with overlap
     ethr =  2.61E-11,  avg # of iterations =  1.0

     negative rho (up, down):  1.436E-04 0.000E+00

     add environment contribution to local potential
     Polarization accuracy = 8.1E-12, # of iterations =  41

     total cpu time spent up to now is    21099.2 secs

     total energy              =   -3432.25318221 Ry
     estimated scf accuracy    <       0.00000010 Ry
     electrostatic embedding   =      -0.07019257 Ry
     cavitation energy         =       0.02109097 Ry
     PV energy                 =      -0.08238608 Ry
     correction to one-el term =     193.92848253 Ry

     iteration # 74     ecut=    50.00 Ry     beta= 0.70
     Davidson diagonalization with overlap
     ethr =  2.61E-11,  avg # of iterations =  1.0

     negative rho (up, down):  1.436E-04 0.000E+00

     add environment contribution to local potential
     Polarization accuracy = 8.1E-12, # of iterations =  41

     total cpu time spent up to now is    21229.7 secs

     total energy              =   -3432.25318221 Ry
     estimated scf accuracy    <       0.00000010 Ry
     electrostatic embedding   =      -0.07019257 Ry
     cavitation energy         =       0.02109097 Ry
     PV energy                 =      -0.08238608 Ry
     correction to one-el term =     193.92848245 Ry

     iteration # 75     ecut=    50.00 Ry     beta= 0.70
     Davidson diagonalization with overlap
     ethr =  2.61E-11,  avg # of iterations =  1.0

     negative rho (up, down):  1.436E-04 0.000E+00

     add environment contribution to local potential
     Polarization accuracy = 8.1E-12, # of iterations =  41

     total cpu time spent up to now is    21338.8 secs

     total energy              =   -3432.25318221 Ry
     estimated scf accuracy    <       0.00000010 Ry
     electrostatic embedding   =      -0.07019257 Ry
     cavitation energy         =       0.02109097 Ry
     PV energy                 =      -0.08238608 Ry
     correction to one-el term =     193.92848235 Ry

     iteration # 76     ecut=    50.00 Ry     beta= 0.70
     Davidson diagonalization with overlap
     ethr =  2.61E-11,  avg # of iterations =  1.0

     negative rho (up, down):  1.436E-04 0.000E+00

     add environment contribution to local potential
     Polarization accuracy = 9.8E-12, # of iterations =  40

     total cpu time spent up to now is    21476.0 secs

     total energy              =   -3432.25318221 Ry
     estimated scf accuracy    <       0.00000010 Ry
     electrostatic embedding   =      -0.07019257 Ry
     cavitation energy         =       0.02109097 Ry
     PV energy                 =      -0.08238608 Ry
     correction to one-el term =     193.92848238 Ry

     iteration # 77     ecut=    50.00 Ry     beta= 0.70
     Davidson diagonalization with overlap
     ethr =  2.61E-11,  avg # of iterations =  1.0

     negative rho (up, down):  1.436E-04 0.000E+00

     add environment contribution to local potential
     Polarization accuracy = 8.1E-12, # of iterations =  41

     total cpu time spent up to now is    21609.9 secs

     total energy              =   -3432.25318221 Ry
     estimated scf accuracy    <       0.00000010 Ry
     electrostatic embedding   =      -0.07019258 Ry
     cavitation energy         =       0.02109097 Ry
     PV energy                 =      -0.08238608 Ry
     correction to one-el term =     193.92848062 Ry

     iteration # 78     ecut=    50.00 Ry     beta= 0.70
     Davidson diagonalization with overlap
     ethr =  2.61E-11,  avg # of iterations =  1.0

     negative rho (up, down):  1.436E-04 0.000E+00

     add environment contribution to local potential
     Polarization accuracy = 8.1E-12, # of iterations =  41

     total cpu time spent up to now is    21736.4 secs

     total energy              =   -3432.25318221 Ry
     estimated scf accuracy    <       0.00000010 Ry
     electrostatic embedding   =      -0.07019257 Ry
     cavitation energy         =       0.02109097 Ry
     PV energy                 =      -0.08238608 Ry
     correction to one-el term =     193.92848245 Ry

     iteration # 79     ecut=    50.00 Ry     beta= 0.70
     Davidson diagonalization with overlap
     ethr =  2.61E-11,  avg # of iterations =  1.0

     negative rho (up, down):  1.436E-04 0.000E+00

     add environment contribution to local potential
     Polarization accuracy = 8.1E-12, # of iterations =  41

     total cpu time spent up to now is    21860.1 secs

     total energy              =   -3432.25318221 Ry
     estimated scf accuracy    <       0.00000010 Ry
     electrostatic embedding   =      -0.07019258 Ry
     cavitation energy         =       0.02109097 Ry
     PV energy                 =      -0.08238608 Ry
     correction to one-el term =     193.92848221 Ry

     iteration # 80     ecut=    50.00 Ry     beta= 0.70
     Davidson diagonalization with overlap
     ethr =  2.61E-11,  avg # of iterations =  1.0

     negative rho (up, down):  1.436E-04 0.000E+00

     add environment contribution to local potential
     Polarization accuracy = 8.1E-12, # of iterations =  41

     total cpu time spent up to now is    21984.2 secs

     total energy              =   -3432.25318221 Ry
     estimated scf accuracy    <       0.00000010 Ry
     electrostatic embedding   =      -0.07019257 Ry
     cavitation energy         =       0.02109097 Ry
     PV energy                 =      -0.08238608 Ry
     correction to one-el term =     193.92848241 Ry

     iteration # 81     ecut=    50.00 Ry     beta= 0.70
     Davidson diagonalization with overlap
     ethr =  2.61E-11,  avg # of iterations =  1.0

     negative rho (up, down):  1.436E-04 0.000E+00

     add environment contribution to local potential
     Polarization accuracy = 8.1E-12, # of iterations =  41

     total cpu time spent up to now is    22122.4 secs

     total energy              =   -3432.25318221 Ry
     estimated scf accuracy    <       0.00000010 Ry
     electrostatic embedding   =      -0.07019257 Ry
     cavitation energy         =       0.02109097 Ry
     PV energy                 =      -0.08238608 Ry
     correction to one-el term =     193.92848241 Ry

     iteration # 82     ecut=    50.00 Ry     beta= 0.70
     Davidson diagonalization with overlap
     ethr =  2.61E-11,  avg # of iterations =  1.0

     negative rho (up, down):  1.436E-04 0.000E+00

     add environment contribution to local potential
     Polarization accuracy = 8.1E-12, # of iterations =  41

     total cpu time spent up to now is    22232.5 secs

     total energy              =   -3432.25318221 Ry
     estimated scf accuracy    <       0.00000010 Ry
     electrostatic embedding   =      -0.07019257 Ry
     cavitation energy         =       0.02109097 Ry
     PV energy                 =      -0.08238608 Ry
     correction to one-el term =     193.92848243 Ry

     iteration # 83     ecut=    50.00 Ry     beta= 0.70
     Davidson diagonalization with overlap
     ethr =  2.61E-11,  avg # of iterations =  1.0

     negative rho (up, down):  1.436E-04 0.000E+00

     add environment contribution to local potential
     Polarization accuracy = 8.1E-12, # of iterations =  41

     total cpu time spent up to now is    22379.3 secs

     total energy              =   -3432.25318221 Ry
     estimated scf accuracy    <       0.00000010 Ry
     electrostatic embedding   =      -0.07019257 Ry
     cavitation energy         =       0.02109097 Ry
     PV energy                 =      -0.08238608 Ry
     correction to one-el term =     193.92848229 Ry

     iteration # 84     ecut=    50.00 Ry     beta= 0.70
     Davidson diagonalization with overlap
     ethr =  2.61E-11,  avg # of iterations =  1.0

     negative rho (up, down):  1.436E-04 0.000E+00

     add environment contribution to local potential
     Polarization accuracy = 8.1E-12, # of iterations =  41

     total cpu time spent up to now is    22511.5 secs

     total energy              =   -3432.25318221 Ry
     estimated scf accuracy    <       0.00000010 Ry
     electrostatic embedding   =      -0.07019257 Ry
     cavitation energy         =       0.02109097 Ry
     PV energy                 =      -0.08238608 Ry
     correction to one-el term =     193.92848231 Ry

     iteration # 85     ecut=    50.00 Ry     beta= 0.70
     Davidson diagonalization with overlap
     ethr =  2.61E-11,  avg # of iterations =  1.0

     negative rho (up, down):  1.436E-04 0.000E+00

     add environment contribution to local potential
     Polarization accuracy = 8.1E-12, # of iterations =  41

     total cpu time spent up to now is    22641.2 secs

     total energy              =   -3432.25318221 Ry
     estimated scf accuracy    <       0.00000010 Ry
     electrostatic embedding   =      -0.07019257 Ry
     cavitation energy         =       0.02109097 Ry
     PV energy                 =      -0.08238608 Ry
     correction to one-el term =     193.92848236 Ry

     iteration # 86     ecut=    50.00 Ry     beta= 0.70
     Davidson diagonalization with overlap
     ethr =  2.61E-11,  avg # of iterations =  1.0

     negative rho (up, down):  1.436E-04 0.000E+00

     add environment contribution to local potential
     Polarization accuracy = 8.1E-12, # of iterations =  41

     total cpu time spent up to now is    22771.0 secs

     total energy              =   -3432.25318221 Ry
     estimated scf accuracy    <       0.00000010 Ry
     electrostatic embedding   =      -0.07019257 Ry
     cavitation energy         =       0.02109097 Ry
     PV energy                 =      -0.08238608 Ry
     correction to one-el term =     193.92848232 Ry

     iteration # 87     ecut=    50.00 Ry     beta= 0.70
     Davidson diagonalization with overlap
     ethr =  2.61E-11,  avg # of iterations =  1.0

     negative rho (up, down):  1.436E-04 0.000E+00

     add environment contribution to local potential
     Polarization accuracy = 8.1E-12, # of iterations =  41

     total cpu time spent up to now is    22910.7 secs

     total energy              =   -3432.25318221 Ry
     estimated scf accuracy    <       0.00000010 Ry
     electrostatic embedding   =      -0.07019257 Ry
     cavitation energy         =       0.02109097 Ry
     PV energy                 =      -0.08238608 Ry
     correction to one-el term =     193.92848251 Ry

     iteration # 88     ecut=    50.00 Ry     beta= 0.70
     Davidson diagonalization with overlap
     ethr =  2.61E-11,  avg # of iterations =  1.0

     negative rho (up, down):  1.436E-04 0.000E+00

     add environment contribution to local potential
     Polarization accuracy = 8.1E-12, # of iterations =  41

     total cpu time spent up to now is    23044.1 secs

     total energy              =   -3432.25318221 Ry
     estimated scf accuracy    <       0.00000010 Ry
     electrostatic embedding   =      -0.07019257 Ry
     cavitation energy         =       0.02109097 Ry
     PV energy                 =      -0.08238608 Ry
     correction to one-el term =     193.92848241 Ry

     iteration # 89     ecut=    50.00 Ry     beta= 0.70
     Davidson diagonalization with overlap
     ethr =  2.61E-11,  avg # of iterations =  1.0

     negative rho (up, down):  1.436E-04 0.000E+00

     add environment contribution to local potential
     Polarization accuracy = 8.1E-12, # of iterations =  41

     total cpu time spent up to now is    23166.3 secs

     total energy              =   -3432.25318221 Ry
     estimated scf accuracy    <       0.00000010 Ry
     electrostatic embedding   =      -0.07019258 Ry
     cavitation energy         =       0.02109097 Ry
     PV energy                 =      -0.08238608 Ry
     correction to one-el term =     193.92848210 Ry

     iteration # 90     ecut=    50.00 Ry     beta= 0.70
     Davidson diagonalization with overlap
     ethr =  2.61E-11,  avg # of iterations =  1.0

     negative rho (up, down):  1.436E-04 0.000E+00

     add environment contribution to local potential
     Polarization accuracy = 8.1E-12, # of iterations =  41

     total cpu time spent up to now is    23296.6 secs

     total energy              =   -3432.25318221 Ry
     estimated scf accuracy    <       0.00000010 Ry
     electrostatic embedding   =      -0.07019257 Ry
     cavitation energy         =       0.02109097 Ry
     PV energy                 =      -0.08238608 Ry
     correction to one-el term =     193.92848255 Ry

     iteration # 91     ecut=    50.00 Ry     beta= 0.70
     Davidson diagonalization with overlap
     ethr =  2.61E-11,  avg # of iterations =  1.0

     negative rho (up, down):  1.436E-04 0.000E+00

     add environment contribution to local potential
     Polarization accuracy = 8.1E-12, # of iterations =  41

     total cpu time spent up to now is    23409.6 secs

     total energy              =   -3432.25318221 Ry
     estimated scf accuracy    <       0.00000010 Ry
     electrostatic embedding   =      -0.07019257 Ry
     cavitation energy         =       0.02109097 Ry
     PV energy                 =      -0.08238608 Ry
     correction to one-el term =     193.92848284 Ry

     iteration # 92     ecut=    50.00 Ry     beta= 0.70
     Davidson diagonalization with overlap
     ethr =  2.61E-11,  avg # of iterations =  1.0

     negative rho (up, down):  1.436E-04 0.000E+00

     add environment contribution to local potential
     Polarization accuracy = 8.1E-12, # of iterations =  41

     total cpu time spent up to now is    23540.6 secs

     total energy              =   -3432.25318221 Ry
     estimated scf accuracy    <       0.00000010 Ry
     electrostatic embedding   =      -0.07019257 Ry
     cavitation energy         =       0.02109097 Ry
     PV energy                 =      -0.08238608 Ry
     correction to one-el term =     193.92848269 Ry

     iteration # 93     ecut=    50.00 Ry     beta= 0.70
     Davidson diagonalization with overlap
     ethr =  2.61E-11,  avg # of iterations =  1.0

     negative rho (up, down):  1.436E-04 0.000E+00

     add environment contribution to local potential
     Polarization accuracy = 8.1E-12, # of iterations =  41

     total cpu time spent up to now is    23664.8 secs

     total energy              =   -3432.25318221 Ry
     estimated scf accuracy    <       0.00000010 Ry
     electrostatic embedding   =      -0.07019257 Ry
     cavitation energy         =       0.02109097 Ry
     PV energy                 =      -0.08238608 Ry
     correction to one-el term =     193.92848267 Ry

     iteration # 94     ecut=    50.00 Ry     beta= 0.70
     Davidson diagonalization with overlap
     ethr =  2.61E-11,  avg # of iterations =  1.0

     negative rho (up, down):  1.436E-04 0.000E+00

     add environment contribution to local potential
     Polarization accuracy = 8.1E-12, # of iterations =  41

     total cpu time spent up to now is    23794.7 secs

     total energy              =   -3432.25318221 Ry
     estimated scf accuracy    <       0.00000010 Ry
     electrostatic embedding   =      -0.07019257 Ry
     cavitation energy         =       0.02109097 Ry
     PV energy                 =      -0.08238608 Ry
     correction to one-el term =     193.92848268 Ry

     iteration # 95     ecut=    50.00 Ry     beta= 0.70
     Davidson diagonalization with overlap
     ethr =  2.61E-11,  avg # of iterations =  1.0

     negative rho (up, down):  1.436E-04 0.000E+00

     add environment contribution to local potential
     Polarization accuracy = 8.1E-12, # of iterations =  41

     total cpu time spent up to now is    23925.8 secs

     total energy              =   -3432.25318221 Ry
     estimated scf accuracy    <       0.00000010 Ry
     electrostatic embedding   =      -0.07019257 Ry
     cavitation energy         =       0.02109097 Ry
     PV energy                 =      -0.08238608 Ry
     correction to one-el term =     193.92848266 Ry

     iteration # 96     ecut=    50.00 Ry     beta= 0.70
     Davidson diagonalization with overlap
     ethr =  2.61E-11,  avg # of iterations =  1.0

     negative rho (up, down):  1.436E-04 0.000E+00

     add environment contribution to local potential
     Polarization accuracy = 8.1E-12, # of iterations =  41

     total cpu time spent up to now is    24046.4 secs

     total energy              =   -3432.25318221 Ry
     estimated scf accuracy    <       0.00000010 Ry
     electrostatic embedding   =      -0.07019257 Ry
     cavitation energy         =       0.02109097 Ry
     PV energy                 =      -0.08238608 Ry
     correction to one-el term =     193.92848265 Ry

     iteration # 97     ecut=    50.00 Ry     beta= 0.70
     Davidson diagonalization with overlap
     ethr =  2.61E-11,  avg # of iterations =  1.0

     negative rho (up, down):  1.436E-04 0.000E+00

     add environment contribution to local potential
     Polarization accuracy = 8.1E-12, # of iterations =  41

     total cpu time spent up to now is    24191.3 secs

     total energy              =   -3432.25318221 Ry
     estimated scf accuracy    <       0.00000010 Ry
     electrostatic embedding   =      -0.07019257 Ry
     cavitation energy         =       0.02109097 Ry
     PV energy                 =      -0.08238608 Ry
     correction to one-el term =     193.92848267 Ry

     iteration # 98     ecut=    50.00 Ry     beta= 0.70
     Davidson diagonalization with overlap
     ethr =  2.61E-11,  avg # of iterations =  1.0

     negative rho (up, down):  1.436E-04 0.000E+00

     add environment contribution to local potential
     Polarization accuracy = 8.1E-12, # of iterations =  41

     total cpu time spent up to now is    24338.6 secs

     total energy              =   -3432.25318221 Ry
     estimated scf accuracy    <       0.00000010 Ry
     electrostatic embedding   =      -0.07019257 Ry
     cavitation energy         =       0.02109097 Ry
     PV energy                 =      -0.08238608 Ry
     correction to one-el term =     193.92848268 Ry

     iteration # 99     ecut=    50.00 Ry     beta= 0.70
     Davidson diagonalization with overlap
     ethr =  2.61E-11,  avg # of iterations =  1.0

     negative rho (up, down):  1.436E-04 0.000E+00

     add environment contribution to local potential
     Polarization accuracy = 8.1E-12, # of iterations =  41

     total cpu time spent up to now is    24467.0 secs

     total energy              =   -3432.25318221 Ry
     estimated scf accuracy    <       0.00000010 Ry
     electrostatic embedding   =      -0.07019257 Ry
     cavitation energy         =       0.02109097 Ry
     PV energy                 =      -0.08238608 Ry
     correction to one-el term =     193.92848263 Ry

     iteration #100     ecut=    50.00 Ry     beta= 0.70
     Davidson diagonalization with overlap
     ethr =  2.61E-11,  avg # of iterations =  1.0

     negative rho (up, down):  1.435E-04 0.000E+00

     the potential shift due to the Gaussian-smeared nuclei is    -1.3393 ev

     total cpu time spent up to now is    24604.6 secs

     End of self-consistent calculation

          k = 0.2500 0.2763 0.0000 ( 34692 PWs)   bands (ev):

[...]
     atom   10 type  2   force =     0.00012616    0.37266236  169.02614731
     atom   11 type  1   force =     0.00881154   -0.03044550   61.76923530
     atom   12 type  1   force =    -0.00912474   -0.03044550   61.76923549
     atom   13 type  1   force =    -0.00004495   -0.01560748   36.75296230
     atom   14 type  1   force =    -0.00004495    0.01549366   36.75295978
     atom   15 type  1   force =    -0.00004945    0.02165693   26.98251379
     atom   16 type  1   force =    -0.00004945   -0.02177175   26.98251335
     atom   17 type  2   force =     0.00013737    0.03486961   -0.00522436
     atom   18 type  2   force =     0.00013737   -0.03476913   -0.00522436
     atom   19 type  1   force =     0.05042230   -1.06543277   -0.00219683
     atom   20 type  1   force =    -0.05072070   -1.06543277   -0.00219683
     atom   21 type  2   force =    -0.00028453    0.00012160   -0.00535005
     atom   22 type  2   force =    -0.00027639    0.00012160   -0.00535005
     atom   23 type  1   force =    -0.05072135    1.06455772   -0.00219685
     atom   24 type  1   force =     0.05042294    1.06455772   -0.00219685
     atom   25 type  1   force =    -0.00004945    0.02165757  -26.98342951
     atom   26 type  1   force =    -0.00004945   -0.02177240  -26.98342908
     atom   27 type  1   force =    -0.00004495   -0.01560616  -36.75386793
     atom   28 type  1   force =    -0.00004495    0.01549234  -36.75386540
     atom   29 type  2   force =    -0.00029206    0.00007774 -165.50662456
     atom   30 type  2   force =    -0.00030989    0.00007774 -165.50662456
     atom   31 type  1   force =    -0.00912506    0.02999596  -61.77105707
     atom   32 type  1   force =     0.00881186    0.02999596  -61.77105689
     atom   33 type  2   force =     0.00012616   -0.37263074 -169.03060547
     atom   34 type  2   force =     0.00012616    0.37266776 -169.03059747
     atom   35 type  1   force =     0.00881275   -0.03047436  -61.77115784
     atom   36 type  1   force =    -0.00912596   -0.03047436  -61.77115803
     atom   37 type  1   force =    -0.00005984    0.81551295  -90.59741026
     atom   38 type  1   force =    -0.00005984   -0.81555057  -90.59742672
     atom   39 type  1   force =    -0.00006921   -0.17169180  -98.83934757
     atom   40 type  1   force =    -0.00006921    0.17160954  -98.83935097
     atom   41 type  3   force =    -0.00001061   -1.57997396   17.55674687
     atom   42 type  3   force =    -0.00001061   -1.58001629  -17.55673992
     atom   43 type  3   force =    -0.00001061    1.57997106   17.55673870
     atom   44 type  3   force =    -0.00001061    1.58001340  -17.55673175
     The core correction contribution to forces
     atom    1 type  1   force =    -0.00000012    0.00035853   -0.01115639
     atom    2 type  1   force =    -0.00000013   -0.00035844   -0.01115635
     atom    3 type  1   force =    -0.00000004   -0.01217399    0.00427276
     atom    4 type  1   force =    -0.00000005    0.01217441    0.00427268
     atom    5 type  2   force =     0.00000000    0.00000000    0.00000000
     atom    6 type  2   force =     0.00000000    0.00000000    0.00000000
     atom    7 type  1   force =    -0.00016814   -0.00048583    0.00068257
     atom    8 type  1   force =     0.00016782   -0.00048582    0.00068258
     atom    9 type  2   force =     0.00000000    0.00000000    0.00000000
     atom   10 type  2   force =     0.00000000    0.00000000    0.00000000
     atom   11 type  1   force =     0.00016779    0.00048472    0.00068263
     atom   12 type  1   force =    -0.00016812    0.00048472    0.00068262
     atom   13 type  1   force =    -0.00000007    0.00039777    0.00019399
     atom   14 type  1   force =    -0.00000007   -0.00039736    0.00019395
     atom   15 type  1   force =    -0.00000006    0.00005299   -0.00297339
     atom   16 type  1   force =    -0.00000006   -0.00005266   -0.00297339
     atom   17 type  2   force =     0.00000000    0.00000000    0.00000000
     atom   18 type  2   force =     0.00000000    0.00000000    0.00000000
     atom   19 type  1   force =    -0.00005162   -0.00054653   -0.00000185
     atom   20 type  1   force =     0.00005132   -0.00054653   -0.00000185
     atom   21 type  2   force =     0.00000000    0.00000000    0.00000000
     atom   22 type  2   force =     0.00000000    0.00000000    0.00000000
     atom   23 type  1   force =     0.00005135    0.00054455   -0.00000186
     atom   24 type  1   force =    -0.00005165    0.00054455   -0.00000185
     atom   25 type  1   force =    -0.00000007    0.00005300    0.00297222
     atom   26 type  1   force =    -0.00000006   -0.00005268    0.00297221
     atom   27 type  1   force =    -0.00000007    0.00039778   -0.00019519
     atom   28 type  1   force =    -0.00000007   -0.00039738   -0.00019516
     atom   29 type  2   force =     0.00000000    0.00000000    0.00000000
     atom   30 type  2   force =     0.00000000    0.00000000    0.00000000
     atom   31 type  1   force =    -0.00016814   -0.00048574   -0.00068417
     atom   32 type  1   force =     0.00016782   -0.00048573   -0.00068419
     atom   33 type  2   force =     0.00000000    0.00000000    0.00000000
     atom   34 type  2   force =     0.00000000    0.00000000    0.00000000
     atom   35 type  1   force =     0.00016779    0.00048463   -0.00068424
     atom   36 type  1   force =    -0.00016812    0.00048463   -0.00068423
     atom   37 type  1   force =    -0.00000005   -0.01217560   -0.00427650
     atom   38 type  1   force =    -0.00000006    0.01217602   -0.00427643
     atom   39 type  1   force =    -0.00000012    0.00035850    0.01115529
     atom   40 type  1   force =    -0.00000013   -0.00035841    0.01115525
     atom   41 type  3   force =     0.00000000    0.00000000    0.00000000
     atom   42 type  3   force =     0.00000000    0.00000000    0.00000000
     atom   43 type  3   force =     0.00000000    0.00000000    0.00000000
     atom   44 type  3   force =     0.00000000    0.00000000    0.00000000
     The Hubbard contrib.    to forces
     atom    1 type  1   force =     0.00000000    0.00000000    0.00000000
     atom    2 type  1   force =     0.00000000    0.00000000    0.00000000
     atom    3 type  1   force =     0.00000000    0.00000000    0.00000000
     atom    4 type  1   force =     0.00000000    0.00000000    0.00000000
     atom    5 type  2   force =     0.00000000    0.00000000    0.00000000
     atom    6 type  2   force =     0.00000000    0.00000000    0.00000000
     atom    7 type  1   force =     0.00000000    0.00000000    0.00000000
     atom    8 type  1   force =     0.00000000    0.00000000    0.00000000
     atom    9 type  2   force =     0.00000000    0.00000000    0.00000000
     atom   10 type  2   force =     0.00000000    0.00000000    0.00000000
     atom   11 type  1   force =     0.00000000    0.00000000    0.00000000
     atom   12 type  1   force =     0.00000000    0.00000000    0.00000000
     atom   13 type  1   force =     0.00000000    0.00000000    0.00000000
     atom   14 type  1   force =     0.00000000    0.00000000    0.00000000
     atom   15 type  1   force =     0.00000000    0.00000000    0.00000000
     atom   16 type  1   force =     0.00000000    0.00000000    0.00000000
     atom   17 type  2   force =     0.00000000    0.00000000    0.00000000
     atom   18 type  2   force =     0.00000000    0.00000000    0.00000000
     atom   19 type  1   force =     0.00000000    0.00000000    0.00000000
     atom   20 type  1   force =     0.00000000    0.00000000    0.00000000
     atom   21 type  2   force =     0.00000000    0.00000000    0.00000000
     atom   22 type  2   force =     0.00000000    0.00000000    0.00000000
     atom   23 type  1   force =     0.00000000    0.00000000    0.00000000
     atom   24 type  1   force =     0.00000000    0.00000000    0.00000000
     atom   25 type  1   force =     0.00000000    0.00000000    0.00000000
     atom   26 type  1   force =     0.00000000    0.00000000    0.00000000
     atom   27 type  1   force =     0.00000000    0.00000000    0.00000000
     atom   28 type  1   force =     0.00000000    0.00000000    0.00000000
     atom   29 type  2   force =     0.00000000    0.00000000    0.00000000
     atom   30 type  2   force =     0.00000000    0.00000000    0.00000000
     atom   31 type  1   force =     0.00000000    0.00000000    0.00000000
     atom   32 type  1   force =     0.00000000    0.00000000    0.00000000
     atom   33 type  2   force =     0.00000000    0.00000000    0.00000000
     atom   34 type  2   force =     0.00000000    0.00000000    0.00000000
     atom   35 type  1   force =     0.00000000    0.00000000    0.00000000
     atom   36 type  1   force =     0.00000000    0.00000000    0.00000000
     atom   37 type  1   force =     0.00000000    0.00000000    0.00000000
     atom   38 type  1   force =     0.00000000    0.00000000    0.00000000
     atom   39 type  1   force =     0.00000000    0.00000000    0.00000000
     atom   40 type  1   force =     0.00000000    0.00000000    0.00000000
     atom   41 type  3   force =     0.00000000    0.00000000    0.00000000
     atom   42 type  3   force =     0.00000000    0.00000000    0.00000000
     atom   43 type  3   force =     0.00000000    0.00000000    0.00000000
     atom   44 type  3   force =     0.00000000    0.00000000    0.00000000
     The SCF correction term to forces
     atom    1 type  1   force =     0.00000000    0.00000000    0.00000000
     atom    2 type  1   force =    -0.00000000   -0.00000000    0.00000000
     atom    3 type  1   force =    -0.00000000    0.00000000    0.00000000
     atom    4 type  1   force =     0.00000000   -0.00000000    0.00000000
     atom    5 type  2   force =     0.00000000   -0.00000000    0.00000001
     atom    6 type  2   force =    -0.00000000   -0.00000000    0.00000001
     atom    7 type  1   force =     0.00000000    0.00000000    0.00000000
     atom    8 type  1   force =    -0.00000000    0.00000000    0.00000000
     atom    9 type  2   force =     0.00000000   -0.00000000    0.00000001
     atom   10 type  2   force =     0.00000000    0.00000000    0.00000001
     atom   11 type  1   force =    -0.00000000   -0.00000000    0.00000000
     atom   12 type  1   force =     0.00000000   -0.00000000    0.00000000
     atom   13 type  1   force =     0.00000000   -0.00000000    0.00000000
     atom   14 type  1   force =     0.00000000   -0.00000000    0.00000000
     atom   15 type  1   force =    -0.00000000   -0.00000000    0.00000000
     atom   16 type  1   force =     0.00000000    0.00000000    0.00000000
     atom   17 type  2   force =     0.00000000   -0.00000000   -0.00000000
     atom   18 type  2   force =    -0.00000000   -0.00000000   -0.00000000
     atom   19 type  1   force =    -0.00000000    0.00000000   -0.00000000
     atom   20 type  1   force =     0.00000000    0.00000000   -0.00000000
     atom   21 type  2   force =     0.00000000    0.00000000   -0.00000000
     atom   22 type  2   force =    -0.00000000    0.00000000   -0.00000000
     atom   23 type  1   force =     0.00000000   -0.00000000   -0.00000000
     atom   24 type  1   force =    -0.00000000   -0.00000000   -0.00000000
     atom   25 type  1   force =     0.00000000   -0.00000000   -0.00000001
     atom   26 type  1   force =     0.00000000    0.00000000   -0.00000001
     atom   27 type  1   force =     0.00000000   -0.00000000   -0.00000000
     atom   28 type  1   force =     0.00000000   -0.00000000   -0.00000000
     atom   29 type  2   force =     0.00000000   -0.00000000   -0.00000001
     atom   30 type  2   force =    -0.00000000   -0.00000000   -0.00000001
     atom   31 type  1   force =     0.00000000   -0.00000000   -0.00000000
     atom   32 type  1   force =    -0.00000000   -0.00000000   -0.00000000
     atom   33 type  2   force =     0.00000000   -0.00000000   -0.00000001
     atom   34 type  2   force =     0.00000000    0.00000000   -0.00000001
     atom   35 type  1   force =    -0.00000000    0.00000000   -0.00000000
     atom   36 type  1   force =     0.00000000    0.00000000   -0.00000000
     atom   37 type  1   force =     0.00000000    0.00000000   -0.00000000
     atom   38 type  1   force =     0.00000000   -0.00000000   -0.00000000
     atom   39 type  1   force =     0.00000000    0.00000000   -0.00000000
     atom   40 type  1   force =    -0.00000000   -0.00000000   -0.00000000
     atom   41 type  3   force =     0.00000000   -0.00000000    0.00000000
     atom   42 type  3   force =     0.00000000   -0.00000000   -0.00000000
     atom   43 type  3   force =     0.00000000    0.00000000    0.00000000
     atom   44 type  3   force =     0.00000000    0.00000000   -0.00000000

     Total force =     0.066558     Total SCF correction =     0.000000
     Energy error            =      6.1E-03 Ry
     Gradient error          =      2.0E-02 Ry/Bohr

     number of scf cycles    =   7
     number of bfgs steps    =   6

     energy             old  =   -3432.5354253234 Ry
     energy             new  =   -3432.5415022815 Ry

     CASE: energy            _new < energy            _old

     new trust radius        =       0.0585073919 bohr
     new conv_thr            =       0.0000000006 Ry


ATOMIC_POSITIONS (crystal)
O             0.0000000000        0.4984557911        0.2690625000
O             0.5000000000        0.5015442089        0.2690625000
O             0.0000000000        0.0035584340        0.2984500219
O             0.5000000000       -0.0035584340        0.2984500219
Ru            0.2500000000        0.0000000000        0.3563847054
Ru            0.7500000000        0.0000000000        0.3563847054
O             0.2497318801        0.3115180766        0.3532429435
O             0.7502681199        0.3115180766        0.3532429435
Ru            0.0000000000        0.5016741434        0.3466053837
Ru            0.5000000000        0.4983258566        0.3466053837
O             0.2502681199        0.6884819234        0.3532429435
O             0.7497318801        0.6884819234        0.3532429435
O             0.0000000000        0.0017823194        0.4089963744
O             0.5000000000       -0.0017823194        0.4089963744
O             0.0000000000        0.5001326288        0.4433115055
O             0.5000000000        0.4998673712        0.4433115055
Ru            0.0000000000       -0.0007790112        0.5000010000
Ru            0.5000000000        0.0007790112        0.5000010000
O             0.2497389563        0.1852773432        0.5000010000
O             0.7502610437        0.1852773432        0.5000010000
Ru            0.2500000000        0.5000000000        0.5000010000
Ru            0.7500000000        0.5000000000        0.5000010000
O             0.2502610437        0.8147236568        0.5000010000
O             0.7497389563        0.8147236568        0.5000010000
O             0.0000000000        0.5001326288        0.5566894945
O             0.5000000000        0.4998673712        0.5566894945
O             0.0000000000        0.0017823194        0.5910046256
O             0.5000000000       -0.0017823194        0.5910046256
Ru            0.2500000000        0.0000000000        0.6436162946
Ru            0.7500000000        0.0000000000        0.6436162946
O             0.2497318801        0.3115180766        0.6467580565
O             0.7502681199        0.3115180766        0.6467580565
Ru            0.0000000000        0.5016741434        0.6533956163
Ru            0.5000000000        0.4983258566        0.6533956163
O             0.2502681199        0.6884819234        0.6467580565
O             0.7497318801        0.6884819234        0.6467580565
O             0.0000000000        0.0035584340        0.7015519781
O             0.5000000000       -0.0035584340        0.7015519781
O             0.0000000000        0.4984557911        0.7309385000
O             0.5000000000        0.5015442089        0.7309385000
H             0.0000000000        0.1030733738        0.2628191260
H             0.0000000000        0.1030733738        0.7371808740
H             0.5000000000        0.8969266262        0.2628191260
H             0.5000000000        0.8969266262        0.7371808740



     Writing config-only to output data dir /storage/home/mgm6007/ixd4/Maria/Strain1_Files/RuO2-110-0-25/RuO2-110-0-25.save/
     NEW-OLD atomic charge density approx. for the potential

     Check: negative core charge=   -0.000001

     negative rho (up, down):  1.629E-04 0.000E+00

     add environment contribution to local potential
     Polarization accuracy = 2.7E-12, # of iterations =  44

     total cpu time spent up to now is   206749.2 secs

     per-process dynamical memory:   226.1 Mb

     Self-consistent Calculation

     iteration #  1     ecut=    50.00 Ry     beta= 0.70
     Davidson diagonalization with overlap
     ethr =  1.00E-06,  avg # of iterations =  7.0

     negative rho (up, down):  6.793E-05 0.000E+00

     add environment contribution to local potential
     Polarization accuracy = 4.7E-12, # of iterations =  42

     total cpu time spent up to now is   206898.7 secs

     total energy              =   -3432.54862541 Ry
     estimated scf accuracy    <       0.00602405 Ry
     electrostatic embedding   =      -0.05691862 Ry
     cavitation energy         =       0.02095330 Ry
     PV energy                 =      -0.08035138 Ry
     correction to one-el term =     188.71684032 Ry

     iteration #  2     ecut=    50.00 Ry     beta= 0.70
     Davidson diagonalization with overlap
     ethr =  1.65E-06,  avg # of iterations =  2.0

     negative rho (up, down):  4.703E-05 0.000E+00

     add environment contribution to local potential
     Polarization accuracy = 3.2E-12, # of iterations =  42

     total cpu time spent up to now is   207041.7 secs

     total energy              =   -3432.54869439 Ry
     estimated scf accuracy    <       0.00449031 Ry
     electrostatic embedding   =      -0.05501370 Ry
     cavitation energy         =       0.02085409 Ry
     PV energy                 =      -0.08050054 Ry
     correction to one-el term =     188.86914187 Ry

     iteration #  3     ecut=    50.00 Ry     beta= 0.70
     Davidson diagonalization with overlap
     ethr =  1.23E-06,  avg # of iterations =  1.0

     negative rho (up, down):  1.669E-05 0.000E+00

     add environment contribution to local potential
     Polarization accuracy = 7.1E-12, # of iterations =  41

     total cpu time spent up to now is   207155.8 secs

     total energy              =   -3432.54887015 Ry
     estimated scf accuracy    <       0.00525806 Ry
     electrostatic embedding   =      -0.05459461 Ry
     cavitation energy         =       0.02083776 Ry
     PV energy                 =      -0.08052264 Ry
     correction to one-el term =     188.90044756 Ry

     iteration #  4     ecut=    50.00 Ry     beta= 0.70
     Davidson diagonalization with overlap
     ethr =  1.23E-06,  avg # of iterations =  1.0

     negative rho (up, down):  1.012E-05 0.000E+00

     add environment contribution to local potential
     Polarization accuracy = 6.6E-12, # of iterations =  41

     total cpu time spent up to now is   207278.7 secs

     total energy              =   -3432.54894963 Ry
     estimated scf accuracy    <       0.00070123 Ry
     electrostatic embedding   =      -0.05386253 Ry
     cavitation energy         =       0.02080846 Ry
     PV energy                 =      -0.08056511 Ry
     correction to one-el term =     188.88498824 Ry

     iteration #  5     ecut=    50.00 Ry     beta= 0.70
     Davidson diagonalization with overlap
     ethr =  1.93E-07,  avg # of iterations =  2.0

     negative rho (up, down):  7.521E-06 0.000E+00

     add environment contribution to local potential
     Polarization accuracy = 6.3E-12, # of iterations =  41
