
     Program PWSCF v.7.2 starts on 23Jul2023 at 14:20:43 
        Git branch: heads/qe-7.2
        Last git commit: b4c5e8deeb7d1863e7553a87b45f8d22c21926a5
        Last git commit date: Mon Mar 27 16:12:09 2023 +0000
        Last git commit subject: Merge branch 'merge_fix_hubbard' into 'develop'

     This program is part of the open-source Quantum ESPRESSO suite
     for quantum simulation of materials; please cite
         "P. Giannozzi et al., J. Phys.:Condens. Matter 21 395502 (2009);
         "P. Giannozzi et al., J. Phys.:Condens. Matter 29 465901 (2017);
         "P. Giannozzi et al., J. Chem. Phys. 152 154105 (2020);
          URL http://www.quantum-espresso.org", 
     in publications or presentations arising from this work. More details at
     http://www.quantum-espresso.org/quote

     Parallel version (MPI), running on    20 processors

     MPI processes distributed on     1 nodes
     110085 MiB available memory on the printing compute node when the environment starts
 
     Reading input from RuO2-110-0-0123.in

     Current dimensions of program PWSCF are:
     Max number of different atomic species (ntypx) = 10
     Max number of k-points (npk) =  40000
     Max angular momentum in pseudopotentials (lmaxx) =  4
 
     Reading input from environ.in:
     * Environ restarting
     * setting up water environment
     * using electronic solvent mode
     * setting boundary derivatives method to SCCS default
     

     File /storage/home/mgm6007/ixd4/Maria/Strain2_Files/RuO2-110-0-0123/RuO2-110-0-0123.update deleted, as requested

     File /storage/home/mgm6007/ixd4/Maria/Strain2_Files/RuO2-110-0-0123/RuO2-110-0-0123.bfgs deleted, as requested
     file O.pbe-n-kjpaw_psl.0.1.UPF: wavefunction(s)  2P renormalized
     Message from routine setup:
     using ibrav=0 with symmetry is DISCOURAGED, use correct ibrav instead
 
     R & G space division:  proc/nbgrp/npool/nimage =      20
     Subspace diagonalization in iterative solution of the eigenvalue problem:
     one sub-group per band group will be used
     scalapack distributed-memory algorithm (size of sub-group:  2*  2 procs)

 
     Parallelization info
     --------------------
     sticks:   dense  smooth     PW     G-vecs:    dense   smooth      PW
     Min         279     111     29                55537    14039    1893
     Max         280     112     30                55546    14052    1904
     Sum        5595    2237    595              1110843   280917   37967
 
     Using Slab Decomposition
 


     bravais-lattice index     =            0
     lattice parameter (alat)  =      12.2467  a.u.
     unit-cell volume          =    5883.2137 (a.u.)^3
     number of atoms/cell      =           48
     number of atomic types    =            3
     number of electrons       =       368.00
     number of Kohn-Sham states=          221
     kinetic-energy cutoff     =      50.0000  Ry
     charge density cutoff     =     500.0000  Ry
     scf convergence threshold =      1.0E-09
     mixing beta               =       0.7000
     number of iterations used =            8  local-TF  mixing
     energy convergence thresh.=      1.0E-04
     force convergence thresh. =      1.0E-04
     Exchange-correlation= PBE
                           (   1   4   3   4   0   0   0)
     nstep                     =          200


     ================================================================================
 
                                  Environ Setup Summary

     ================================================================================
 
     Please cite

          O. Andreussi, I. Dabo and N. Marzari, J. Chem. Phys. 136, 064102 (2012)

     in publications or presentations arising from this work.

     ================================================================================
 
     Parameters
     ==========

     compensation onset threshold      =               0.1000E+00
     static permittivity               =                    78.30
     surface tension in input (dyn/cm) =                    47.90
     surface tension in internal units =               0.6153E-04
     external pressure in input (GPa)  =                    -0.36
     external pressure in inter. units =              -0.2447E-04

     Solvent Boundary
     ================

     solvent mode                      =               electronic
     derivatives method                =                    chain
     numerical core for derivatives    =                      fft
     switching function adopted        =                     SCCS
     density limit for vacuum region   =               0.5000E-02
     density limit for bulk solvent    =               0.1000E-03

     Electrostatic Setup
     ===================

     electrostatic problem to solve    =              generalized
     numerical solver adopted          =                       cg
     type of auxiliary density adopted =                     none
     numerical core for poisson        =                      fft
     type of pbc corrections           =                parabolic
     numerical core for corrections    =                      1da

     ================================================================================
 

     celldm(1)=  12.246684  celldm(2)=   0.000000  celldm(3)=   0.000000
     celldm(4)=   0.000000  celldm(5)=   0.000000  celldm(6)=   0.000000

     crystal axes: (cart. coord. in units of alat)
               a(1) = (   1.000000   0.000000   0.000000 )  
               a(2) = (   0.000000   0.937861   0.000000 )  
               a(3) = (   0.000000   0.000000   3.415235 )  

     reciprocal axes: (cart. coord. in units 2 pi/alat)
               b(1) = (  1.000000  0.000000  0.000000 )  
               b(2) = (  0.000000  1.066256  0.000000 )  
               b(3) = (  0.000000  0.000000  0.292806 )  


     PseudoPot. # 1 for O  read from file:
     /gpfs/group/ixd4/default/Simon/pseudopotentials/materialscloud/SSSP_1.3.0_PBE_efficiency/O.pbe-n-kjpaw_psl.0.1.UPF
     MD5 check sum: 0234752ac141de4415c5fc33072bef88
     Pseudo is Projector augmented-wave + core cor, Zval =  6.0
     Generated using "atomic" code by A. Dal Corso  v.5.0.99 svn rev. 10869
     Shape of augmentation charge: BESSEL
     Using radial grid of 1095 points,  4 beta functions with: 
                l(1) =   0
                l(2) =   0
                l(3) =   1
                l(4) =   1
     Q(r) pseudized with 0 coefficients 


     PseudoPot. # 2 for Ru read from file:
     /gpfs/group/ixd4/default/Simon/pseudopotentials/materialscloud/SSSP_1.3.0_PBE_efficiency/Ru_ONCV_PBE-1.0.oncvpsp.upf
     MD5 check sum: be037bb81c227cfb9b1461a9f099f4bd
     Pseudo is Norm-conserving, Zval = 16.0
     Generated using ONCVPSP code by D. R. Hamann
     Using radial grid of 1458 points,  6 beta functions with: 
                l(1) =   0
                l(2) =   0
                l(3) =   1
                l(4) =   1
                l(5) =   2
                l(6) =   2

     PseudoPot. # 3 for H  read from file:
     /gpfs/group/ixd4/default/Simon/pseudopotentials/materialscloud/SSSP_1.3.0_PBE_efficiency/H.pbe-rrkjus_psl.1.0.0.UPF
     MD5 check sum: f52b6d4d1c606e5624b1dc7b2218f220
     Pseudo is Ultrasoft, Zval =  1.0
     Generated using "atomic" code by A. Dal Corso  v.5.1
     Using radial grid of  929 points,  2 beta functions with: 
                l(1) =   0
                l(2) =   0
     Q(r) pseudized with 0 coefficients 


     atomic species   valence    mass     pseudopotential
        O              6.00    15.99940     O ( 1.00)
        Ru            16.00   101.07000     Ru( 1.00)
        H              1.00     1.00794     H ( 1.00)

      2 Sym. Ops. (no inversion) found



   Cartesian axes

     site n.     atom                  positions (alat units)
         1           O   tau(   1) = (  -0.0065816   0.4348747   0.9175659  )
         2           O   tau(   2) = (   0.4934352   0.4348778   0.9175583  )
         3           O   tau(   3) = (  -0.0007568   0.0098286   1.0275764  )
         4           O   tau(   4) = (   0.4992431   0.0098305   1.0275751  )
         5           Ru  tau(   5) = (   0.2497603  -0.0013553   1.2228250  )
         6           Ru  tau(   6) = (   0.7497604  -0.0013553   1.2228251  )
         7           O   tau(   7) = (   0.2486026   0.2903976   1.2277131  )
         8           O   tau(   8) = (   0.7486026   0.2903978   1.2277128  )
         9           Ru  tau(   9) = (  -0.0001274   0.4671206   1.2193771  )
        10           Ru  tau(  10) = (   0.4998718   0.4671206   1.2193782  )
        11           O   tau(  11) = (   0.2479721   0.6444931   1.2081748  )
        12           O   tau(  12) = (   0.7479722   0.6444930   1.2081745  )
        13           O   tau(  13) = (  -0.0002400  -0.0042886   1.4025167  )
        14           O   tau(  14) = (   0.4997600  -0.0042887   1.4025167  )
        15           O   tau(  15) = (  -0.0006432   0.4742607   1.5199998  )
        16           O   tau(  16) = (   0.4993568   0.4742607   1.5199998  )
        17           Ru  tau(  17) = (   0.0006508   0.0034192   1.7076210  )
        18           Ru  tau(  18) = (   0.5006508   0.0034193   1.7076210  )
        19           O   tau(  19) = (   0.2513713   0.1799093   1.7076210  )
        20           O   tau(  20) = (   0.7513713   0.1799094   1.7076210  )
        21           Ru  tau(  21) = (   0.2474475   0.4730662   1.7076210  )
        22           Ru  tau(  22) = (   0.7474474   0.4730662   1.7076210  )
        23           O   tau(  23) = (   0.2516045   0.7659331   1.7076210  )
        24           O   tau(  24) = (   0.7516045   0.7659331   1.7076210  )
        25           O   tau(  25) = (  -0.0006432   0.4742607   1.8952388  )
        26           O   tau(  26) = (   0.4993568   0.4742607   1.8952388  )
        27           O   tau(  27) = (  -0.0002400  -0.0042886   2.0127220  )
        28           O   tau(  28) = (   0.4997600  -0.0042887   2.0127220  )
        29           Ru  tau(  29) = (   0.2497603  -0.0013553   2.1924136  )
        30           Ru  tau(  30) = (   0.7497604  -0.0013553   2.1924136  )
        31           O   tau(  31) = (   0.2486026   0.2903976   2.1875255  )
        32           O   tau(  32) = (   0.7486026   0.2903978   2.1875258  )
        33           Ru  tau(  33) = (  -0.0001274   0.4671206   2.1958615  )
        34           Ru  tau(  34) = (   0.4998718   0.4671206   2.1958605  )
        35           O   tau(  35) = (   0.2479721   0.6444931   2.2070639  )
        36           O   tau(  36) = (   0.7479722   0.6444930   2.2070641  )
        37           O   tau(  37) = (  -0.0007568   0.0098286   2.3876656  )
        38           O   tau(  38) = (   0.4992431   0.0098305   2.3876670  )
        39           O   tau(  39) = (  -0.0065816   0.4348747   2.4976728  )
        40           O   tau(  40) = (   0.4934352   0.4348778   2.4976803  )
        41           H   tau(  41) = (   0.1310285   0.4620308   0.8613410  )
        42           H   tau(  42) = (   0.1310285   0.4620308   2.5538942  )
        43           H   tau(  43) = (   0.6310126   0.4620276   0.8613473  )
        44           H   tau(  44) = (   0.6310126   0.4620276   2.5538879  )
        45           H   tau(  45) = (  -0.0019166   0.1355713   0.9401393  )
        46           H   tau(  46) = (  -0.0019166   0.1355713   2.4750959  )
        47           H   tau(  47) = (   0.4980833   0.1355695   0.9401405  )
        48           H   tau(  48) = (   0.4980833   0.1355695   2.4750947  )

     number of k points=     2  Marzari-Vanderbilt smearing, width (Ry)=  0.0300
                       cart. coord. in units 2pi/alat
        k(    1) = (   0.2500000   0.2665641   0.0000000), wk =   1.0000000
        k(    2) = (  -0.2500000   0.2665641   0.0000000), wk =   1.0000000

     Dense  grid:  1110843 G-vectors     FFT dimensions: (  90,  81, 300)

     Smooth grid:   280917 G-vectors     FFT dimensions: (  60,  54, 192)

     Estimated max dynamical RAM per process >     182.22 MB

     Estimated total dynamical RAM >       3.56 GB

     Check: negative core charge=   -0.000001

     Initial potential from superposition of free atoms

     starting charge     367.9933, renormalised to     368.0000

     add environment contribution to local potential
     Polarization accuracy = 2.5E-12, # of iterations =  23

     negative rho (up, down):  2.793E-05 0.000E+00
     Starting wfcs are  240 randomized atomic wfcs
     Checking if some PAW data can be deallocated... 

     total cpu time spent up to now is      684.1 secs

     per-process dynamical memory:   151.4 Mb

     Self-consistent Calculation

     iteration #  1     ecut=    50.00 Ry     beta= 0.70
     Davidson diagonalization with overlap
     ethr =  1.00E-02,  avg # of iterations =  2.0

     negative rho (up, down):  2.624E-08 0.000E+00

     total cpu time spent up to now is      830.2 secs

     total energy              =   -3435.63467687 Ry
     estimated scf accuracy    <       8.77223387 Ry
     electrostatic embedding   =      -0.00183176 Ry
     cavitation energy         =       0.01953711 Ry
     PV energy                 =      -0.08592929 Ry
     correction to one-el term =     221.39148613 Ry

     iteration #  2     ecut=    50.00 Ry     beta= 0.70
     Davidson diagonalization with overlap
     ethr =  2.38E-03,  avg # of iterations =  2.0

     total cpu time spent up to now is      996.3 secs

     total energy              =   -3437.66870858 Ry
     estimated scf accuracy    <       1.21450128 Ry
     electrostatic embedding   =      -0.00277949 Ry
     cavitation energy         =       0.01937003 Ry
     PV energy                 =      -0.08668603 Ry
     correction to one-el term =     221.39455433 Ry

     iteration #  3     ecut=    50.00 Ry     beta= 0.70
     Davidson diagonalization with overlap
     ethr =  3.30E-04,  avg # of iterations =  5.0

     total cpu time spent up to now is     1159.1 secs

     total energy              =   -3437.79821432 Ry
     estimated scf accuracy    <       0.23178351 Ry
     electrostatic embedding   =      -0.00305598 Ry
     cavitation energy         =       0.01947018 Ry
     PV energy                 =      -0.08643193 Ry
     correction to one-el term =     221.39511562 Ry

     iteration #  4     ecut=    50.00 Ry     beta= 0.70
     Davidson diagonalization with overlap
     ethr =  6.30E-05,  avg # of iterations =  1.0

     total cpu time spent up to now is     1285.4 secs

     total energy              =   -3437.79086084 Ry
     estimated scf accuracy    <       0.12602095 Ry
     electrostatic embedding   =      -0.00317725 Ry
     cavitation energy         =       0.01965632 Ry
     PV energy                 =      -0.08577631 Ry
     correction to one-el term =     221.39511361 Ry

     iteration #  5     ecut=    50.00 Ry     beta= 0.70
     Davidson diagonalization with overlap
     ethr =  3.42E-05,  avg # of iterations =  5.0

     total cpu time spent up to now is     1435.5 secs

     total energy              =   -3437.79337461 Ry
     estimated scf accuracy    <       0.14547417 Ry
     electrostatic embedding   =      -0.00320714 Ry
     cavitation energy         =       0.02014366 Ry
     PV energy                 =      -0.08458807 Ry
     correction to one-el term =     221.39468341 Ry

     iteration #  6     ecut=    50.00 Ry     beta= 0.70
     Davidson diagonalization with overlap
     ethr =  3.42E-05,  avg # of iterations =  1.0

     add environment contribution to local potential
     Polarization accuracy = 2.4E-12, # of iterations =  35

     total cpu time spent up to now is     1598.8 secs

     total energy              =   -3437.78869603 Ry
     estimated scf accuracy    <       0.08502284 Ry
     electrostatic embedding   =      -0.00313389 Ry
     cavitation energy         =       0.02049045 Ry
     PV energy                 =      -0.08379449 Ry
     correction to one-el term =     221.39416196 Ry

     iteration #  7     ecut=    50.00 Ry     beta= 0.70
     Davidson diagonalization with overlap
     ethr =  2.31E-05,  avg # of iterations =  8.0

     add environment contribution to local potential
     Polarization accuracy = 4.7E-12, # of iterations =  40

     total cpu time spent up to now is     1784.3 secs

     total energy              =   -3437.79996507 Ry
     estimated scf accuracy    <       0.06173857 Ry
     electrostatic embedding   =      -0.02973003 Ry
     cavitation energy         =       0.02088237 Ry
     PV energy                 =      -0.08284382 Ry
     correction to one-el term =     188.60380828 Ry

     iteration #  8     ecut=    50.00 Ry     beta= 0.70
     Davidson diagonalization with overlap
     ethr =  1.68E-05,  avg # of iterations =  5.0

     add environment contribution to local potential
     Polarization accuracy = 5.8E-12, # of iterations =  43

     total cpu time spent up to now is     1935.0 secs

     total energy              =   -3437.79905995 Ry
     estimated scf accuracy    <       0.02443188 Ry
     electrostatic embedding   =      -0.03237436 Ry
     cavitation energy         =       0.02134716 Ry
     PV energy                 =      -0.08192541 Ry
     correction to one-el term =     185.78195667 Ry

     iteration #  9     ecut=    50.00 Ry     beta= 0.70
     Davidson diagonalization with overlap
     ethr =  6.64E-06,  avg # of iterations = 11.0

     negative rho (up, down):  3.668E-04 0.000E+00

     add environment contribution to local potential
     Polarization accuracy = 8.7E-12, # of iterations =  44

     total cpu time spent up to now is     2113.3 secs

     total energy              =   -3437.80017528 Ry
     estimated scf accuracy    <       0.01388198 Ry
     electrostatic embedding   =      -0.03362020 Ry
     cavitation energy         =       0.02144215 Ry
     PV energy                 =      -0.08154325 Ry
     correction to one-el term =     185.15448123 Ry

     iteration # 10     ecut=    50.00 Ry     beta= 0.70
     Davidson diagonalization with overlap
     ethr =  3.77E-06,  avg # of iterations =  4.0

     negative rho (up, down):  8.465E-04 0.000E+00

     add environment contribution to local potential
     Polarization accuracy = 8.4E-12, # of iterations =  43

     total cpu time spent up to now is     2280.1 secs

     total energy              =   -3437.80122782 Ry
     estimated scf accuracy    <       0.00528455 Ry
     electrostatic embedding   =      -0.03313979 Ry
     cavitation energy         =       0.02141153 Ry
     PV energy                 =      -0.08143230 Ry
     correction to one-el term =     185.51361144 Ry

     iteration # 11     ecut=    50.00 Ry     beta= 0.70
     Davidson diagonalization with overlap
     ethr =  1.44E-06,  avg # of iterations =  6.0

     negative rho (up, down):  9.012E-05 0.000E+00

     add environment contribution to local potential
     Polarization accuracy = 4.5E-12, # of iterations =  41

     total cpu time spent up to now is     2455.1 secs

     total energy              =   -3437.80268964 Ry
     estimated scf accuracy    <       0.00286378 Ry
     electrostatic embedding   =      -0.03081576 Ry
     cavitation energy         =       0.02121006 Ry
     PV energy                 =      -0.08158768 Ry
     correction to one-el term =     187.11646534 Ry

     iteration # 12     ecut=    50.00 Ry     beta= 0.70
     Davidson diagonalization with overlap
     ethr =  7.78E-07,  avg # of iterations =  7.0

     negative rho (up, down):  2.981E-07 0.000E+00

     add environment contribution to local potential
     Polarization accuracy = 6.5E-12, # of iterations =  40

     total cpu time spent up to now is     2611.8 secs

     total energy              =   -3437.80348474 Ry
     estimated scf accuracy    <       0.00110431 Ry
     electrostatic embedding   =      -0.02874828 Ry
     cavitation energy         =       0.02105483 Ry
     PV energy                 =      -0.08178791 Ry
     correction to one-el term =     188.51397727 Ry

     iteration # 13     ecut=    50.00 Ry     beta= 0.70
     Davidson diagonalization with overlap
     ethr =  3.00E-07,  avg # of iterations =  7.0

     add environment contribution to local potential
     Polarization accuracy = 2.7E-12, # of iterations =  41

     total cpu time spent up to now is     2771.3 secs

     total energy              =   -3437.80397878 Ry
     estimated scf accuracy    <       0.00121627 Ry
     electrostatic embedding   =      -0.02736872 Ry
     cavitation energy         =       0.02097561 Ry
     PV energy                 =      -0.08191080 Ry
     correction to one-el term =     189.58490445 Ry

     iteration # 14     ecut=    50.00 Ry     beta= 0.70
     Davidson diagonalization with overlap
     ethr =  3.00E-07,  avg # of iterations =  6.0

     negative rho (up, down):  1.733E-05 0.000E+00

     add environment contribution to local potential
     Polarization accuracy = 2.6E-12, # of iterations =  41

     total cpu time spent up to now is     2947.3 secs

     total energy              =   -3437.80433283 Ry
     estimated scf accuracy    <       0.00047682 Ry
     electrostatic embedding   =      -0.02600728 Ry
     cavitation energy         =       0.02088481 Ry
     PV energy                 =      -0.08207351 Ry
     correction to one-el term =     190.61494908 Ry

     iteration # 15     ecut=    50.00 Ry     beta= 0.70
     Davidson diagonalization with overlap
     ethr =  1.30E-07,  avg # of iterations =  8.0

     negative rho (up, down):  7.226E-05 0.000E+00

     add environment contribution to local potential
     Polarization accuracy = 3.0E-12, # of iterations =  41

     total cpu time spent up to now is     3099.5 secs

     total energy              =   -3437.80452196 Ry
     estimated scf accuracy    <       0.00014349 Ry
     electrostatic embedding   =      -0.02542620 Ry
     cavitation energy         =       0.02087810 Ry
     PV energy                 =      -0.08208664 Ry
     correction to one-el term =     191.36114140 Ry

     iteration # 16     ecut=    50.00 Ry     beta= 0.70
     Davidson diagonalization with overlap
     ethr =  3.90E-08,  avg # of iterations =  7.0

     negative rho (up, down):  6.129E-04 0.000E+00

     add environment contribution to local potential
     Polarization accuracy = 9.6E-12, # of iterations =  39

     total cpu time spent up to now is     3254.8 secs

     total energy              =   -3437.80454359 Ry
     estimated scf accuracy    <       0.00016769 Ry
     electrostatic embedding   =      -0.02513157 Ry
     cavitation energy         =       0.02086162 Ry
     PV energy                 =      -0.08210825 Ry
     correction to one-el term =     191.61324620 Ry

     iteration # 17     ecut=    50.00 Ry     beta= 0.70
     Davidson diagonalization with overlap
     ethr =  3.90E-08,  avg # of iterations =  3.0

     negative rho (up, down):  4.909E-04 0.000E+00

     add environment contribution to local potential
     Polarization accuracy = 9.8E-12, # of iterations =  40

     total cpu time spent up to now is     3444.0 secs

     total energy              =   -3437.80455437 Ry
     estimated scf accuracy    <       0.00000418 Ry
     electrostatic embedding   =      -0.02498231 Ry
     cavitation energy         =       0.02087765 Ry
     PV energy                 =      -0.08210412 Ry
     correction to one-el term =     191.71678623 Ry

     iteration # 18     ecut=    50.00 Ry     beta= 0.70
     Davidson diagonalization with overlap
     ethr =  1.14E-09,  avg # of iterations =  2.0

     negative rho (up, down):  2.563E-04 0.000E+00

     add environment contribution to local potential
     Polarization accuracy = 5.7E-12, # of iterations =  40

     total cpu time spent up to now is     3608.7 secs

     total energy              =   -3437.80455482 Ry
     estimated scf accuracy    <       0.00000246 Ry
     electrostatic embedding   =      -0.02495273 Ry
     cavitation energy         =       0.02087952 Ry
     PV energy                 =      -0.08209893 Ry
     correction to one-el term =     191.72799175 Ry

     iteration # 19     ecut=    50.00 Ry     beta= 0.70
     Davidson diagonalization with overlap
     ethr =  6.68E-10,  avg # of iterations =  5.0

     negative rho (up, down):  2.490E-04 0.000E+00

     add environment contribution to local potential
     Polarization accuracy = 1.9E-12, # of iterations =  40

     total cpu time spent up to now is     3758.5 secs

     total energy              =   -3437.80455511 Ry
     estimated scf accuracy    <       0.00000070 Ry
     electrostatic embedding   =      -0.02491472 Ry
     cavitation energy         =       0.02087854 Ry
     PV energy                 =      -0.08209408 Ry
     correction to one-el term =     191.74260416 Ry

     iteration # 20     ecut=    50.00 Ry     beta= 0.70
     Davidson diagonalization with overlap
     ethr =  1.90E-10,  avg # of iterations =  2.0

     negative rho (up, down):  1.830E-04 0.000E+00

     add environment contribution to local potential
     Polarization accuracy = 2.0E-12, # of iterations =  40

     total cpu time spent up to now is     3895.5 secs

     total energy              =   -3437.80455515 Ry
     estimated scf accuracy    <       0.00000061 Ry
     electrostatic embedding   =      -0.02491646 Ry
     cavitation energy         =       0.02087890 Ry
     PV energy                 =      -0.08209220 Ry
     correction to one-el term =     191.74061765 Ry

     iteration # 21     ecut=    50.00 Ry     beta= 0.70
     Davidson diagonalization with overlap
     ethr =  1.66E-10,  avg # of iterations =  1.0

     negative rho (up, down):  1.629E-04 0.000E+00

     add environment contribution to local potential
     Polarization accuracy = 2.2E-12, # of iterations =  41

     total cpu time spent up to now is     4031.2 secs

     total energy              =   -3437.80455530 Ry
     estimated scf accuracy    <       0.00000025 Ry
     electrostatic embedding   =      -0.02490641 Ry
     cavitation energy         =       0.02087819 Ry
     PV energy                 =      -0.08209024 Ry
     correction to one-el term =     191.74293579 Ry

     iteration # 22     ecut=    50.00 Ry     beta= 0.70
     Davidson diagonalization with overlap
     ethr =  6.75E-11,  avg # of iterations =  1.0

     negative rho (up, down):  1.633E-04 0.000E+00

     add environment contribution to local potential
     Polarization accuracy = 2.1E-12, # of iterations =  41

     total cpu time spent up to now is     4175.2 secs

     total energy              =   -3437.80455549 Ry
     estimated scf accuracy    <       0.00000014 Ry
     electrostatic embedding   =      -0.02490296 Ry
     cavitation energy         =       0.02087804 Ry
     PV energy                 =      -0.08208903 Ry
     correction to one-el term =     191.74248213 Ry

     iteration # 23     ecut=    50.00 Ry     beta= 0.70
     Davidson diagonalization with overlap
     ethr =  3.76E-11,  avg # of iterations =  1.0

     negative rho (up, down):  1.646E-04 0.000E+00

     add environment contribution to local potential
     Polarization accuracy = 1.7E-12, # of iterations =  40

     total cpu time spent up to now is     4331.7 secs

     total energy              =   -3437.80455574 Ry
     estimated scf accuracy    <       0.00000011 Ry
     electrostatic embedding   =      -0.02490248 Ry
     cavitation energy         =       0.02087786 Ry
     PV energy                 =      -0.08208868 Ry
     correction to one-el term =     191.74148328 Ry

     iteration # 24     ecut=    50.00 Ry     beta= 0.70
     Davidson diagonalization with overlap
     ethr =  2.90E-11,  avg # of iterations =  1.0

     negative rho (up, down):  1.588E-04 0.000E+00

     add environment contribution to local potential
     Polarization accuracy = 2.1E-12, # of iterations =  41

     total cpu time spent up to now is     4500.3 secs

     total energy              =   -3437.80455600 Ry
     estimated scf accuracy    <       0.00000009 Ry
     electrostatic embedding   =      -0.02490182 Ry
     cavitation energy         =       0.02087779 Ry
     PV energy                 =      -0.08208854 Ry
     correction to one-el term =     191.74067783 Ry

     iteration # 25     ecut=    50.00 Ry     beta= 0.70
     Davidson diagonalization with overlap
     ethr =  2.52E-11,  avg # of iterations =  1.0

     negative rho (up, down):  1.566E-04 0.000E+00

     add environment contribution to local potential
     Polarization accuracy = 2.1E-12, # of iterations =  41

     total cpu time spent up to now is     4672.7 secs

     total energy              =   -3437.80455619 Ry
     estimated scf accuracy    <       0.00000009 Ry
     electrostatic embedding   =      -0.02490097 Ry
     cavitation energy         =       0.02087788 Ry
     PV energy                 =      -0.08208848 Ry
     correction to one-el term =     191.74035958 Ry

     iteration # 26     ecut=    50.00 Ry     beta= 0.70
     Davidson diagonalization with overlap
     ethr =  2.33E-11,  avg # of iterations =  1.0

     negative rho (up, down):  1.512E-04 0.000E+00

     add environment contribution to local potential
     Polarization accuracy = 2.0E-12, # of iterations =  41

     total cpu time spent up to now is     4812.5 secs

     total energy              =   -3437.80455650 Ry
     estimated scf accuracy    <       0.00000008 Ry
     electrostatic embedding   =      -0.02490054 Ry
     cavitation energy         =       0.02087792 Ry
     PV energy                 =      -0.08208864 Ry
     correction to one-el term =     191.73989972 Ry

     iteration # 27     ecut=    50.00 Ry     beta= 0.70
     Davidson diagonalization with overlap
     ethr =  2.23E-11,  avg # of iterations =  1.0

     negative rho (up, down):  1.419E-04 0.000E+00

     add environment contribution to local potential
     Polarization accuracy = 2.3E-12, # of iterations =  40

     total cpu time spent up to now is     4977.3 secs

     total energy              =   -3437.80455693 Ry
     estimated scf accuracy    <       0.00000008 Ry
     electrostatic embedding   =      -0.02490085 Ry
     cavitation energy         =       0.02087790 Ry
     PV energy                 =      -0.08208867 Ry
     correction to one-el term =     191.73874179 Ry

     iteration # 28     ecut=    50.00 Ry     beta= 0.70
     Davidson diagonalization with overlap
     ethr =  2.13E-11,  avg # of iterations =  1.0

     negative rho (up, down):  1.294E-04 0.000E+00

     add environment contribution to local potential
     Polarization accuracy = 1.7E-12, # of iterations =  40

     total cpu time spent up to now is     5115.6 secs

     total energy              =   -3437.80455756 Ry
     estimated scf accuracy    <       0.00000007 Ry
     electrostatic embedding   =      -0.02489977 Ry
     cavitation energy         =       0.02087793 Ry
     PV energy                 =      -0.08208857 Ry
     correction to one-el term =     191.73818136 Ry

     iteration # 29     ecut=    50.00 Ry     beta= 0.70
     Davidson diagonalization with overlap
     ethr =  1.89E-11,  avg # of iterations =  1.0

     negative rho (up, down):  1.191E-04 0.000E+00

     add environment contribution to local potential
     Polarization accuracy = 1.8E-12, # of iterations =  41

     total cpu time spent up to now is     5241.9 secs

     total energy              =   -3437.80455872 Ry
     estimated scf accuracy    <       0.00000006 Ry
     electrostatic embedding   =      -0.02489999 Ry
     cavitation energy         =       0.02087800 Ry
     PV energy                 =      -0.08208878 Ry
     correction to one-el term =     191.73720928 Ry

     iteration # 30     ecut=    50.00 Ry     beta= 0.70
     Davidson diagonalization with overlap
     ethr =  1.66E-11,  avg # of iterations =  2.0

     negative rho (up, down):  1.073E-04 0.000E+00

     add environment contribution to local potential
     Polarization accuracy = 1.6E-12, # of iterations =  41

     total cpu time spent up to now is     5407.6 secs

     total energy              =   -3437.80456031 Ry
     estimated scf accuracy    <       0.00000006 Ry
     electrostatic embedding   =      -0.02490146 Ry
     cavitation energy         =       0.02087807 Ry
     PV energy                 =      -0.08208904 Ry
     correction to one-el term =     191.73652545 Ry

     iteration # 31     ecut=    50.00 Ry     beta= 0.70
     Davidson diagonalization with overlap
     ethr =  1.66E-11,  avg # of iterations =  2.5

     negative rho (up, down):  1.088E-04 0.000E+00

     add environment contribution to local potential
     Polarization accuracy = 1.3E-12, # of iterations =  40

     total cpu time spent up to now is     5566.9 secs

     total energy              =   -3437.80456451 Ry
     estimated scf accuracy    <       0.00000004 Ry
     electrostatic embedding   =      -0.02490302 Ry
     cavitation energy         =       0.02087804 Ry
     PV energy                 =      -0.08208895 Ry
     correction to one-el term =     191.73489057 Ry

     iteration # 32     ecut=    50.00 Ry     beta= 0.70
     Davidson diagonalization with overlap
     ethr =  1.12E-11,  avg # of iterations =  2.5

     negative rho (up, down):  1.113E-04 0.000E+00

     add environment contribution to local potential
     Polarization accuracy = 1.4E-12, # of iterations =  41

     total cpu time spent up to now is     5728.4 secs

     total energy              =   -3437.80456612 Ry
     estimated scf accuracy    <       0.00000004 Ry
     electrostatic embedding   =      -0.02490374 Ry
     cavitation energy         =       0.02087805 Ry
     PV energy                 =      -0.08208899 Ry
     correction to one-el term =     191.73484874 Ry

     iteration # 33     ecut=    50.00 Ry     beta= 0.70
     Davidson diagonalization with overlap
     ethr =  9.95E-12,  avg # of iterations =  5.0

     negative rho (up, down):  1.177E-04 0.000E+00

     add environment contribution to local potential
     Polarization accuracy = 1.2E-12, # of iterations =  40

     total cpu time spent up to now is     5880.0 secs

     total energy              =   -3437.80457236 Ry
     estimated scf accuracy    <       0.00000002 Ry
     electrostatic embedding   =      -0.02490572 Ry
     cavitation energy         =       0.02087802 Ry
     PV energy                 =      -0.08208887 Ry
     correction to one-el term =     191.73435174 Ry

     iteration # 34     ecut=    50.00 Ry     beta= 0.70
     Davidson diagonalization with overlap
     ethr =  4.15E-12,  avg # of iterations =  2.5

     negative rho (up, down):  1.340E-04 0.000E+00

     add environment contribution to local potential
     Polarization accuracy = 9.2E-12, # of iterations =  40

     total cpu time spent up to now is     6049.8 secs

     total energy              =   -3437.80457641 Ry
     estimated scf accuracy    <          8.8E-09 Ry
     electrostatic embedding   =      -0.02490588 Ry
     cavitation energy         =       0.02087802 Ry
     PV energy                 =      -0.08208878 Ry
     correction to one-el term =     191.73471378 Ry

     iteration # 35     ecut=    50.00 Ry     beta= 0.70
     Davidson diagonalization with overlap
     ethr =  2.40E-12,  avg # of iterations =  5.0

     negative rho (up, down):  1.357E-04 0.000E+00

     add environment contribution to local potential
     Polarization accuracy = 1.2E-12, # of iterations =  40

     total cpu time spent up to now is     6224.8 secs

     total energy              =   -3437.80457955 Ry
     estimated scf accuracy    <          3.4E-09 Ry
     electrostatic embedding   =      -0.02490442 Ry
     cavitation energy         =       0.02087799 Ry
     PV energy                 =      -0.08208860 Ry
     correction to one-el term =     191.73611603 Ry

     iteration # 36     ecut=    50.00 Ry     beta= 0.70
     Davidson diagonalization with overlap
     ethr =  9.24E-13,  avg # of iterations =  2.0

     negative rho (up, down):  1.343E-04 0.000E+00

     add environment contribution to local potential
     Polarization accuracy = 1.5E-12, # of iterations =  40

     total cpu time spent up to now is     6378.9 secs

     total energy              =   -3437.80457996 Ry
     estimated scf accuracy    <          1.8E-09 Ry
     electrostatic embedding   =      -0.02490377 Ry
     cavitation energy         =       0.02087799 Ry
     PV energy                 =      -0.08208861 Ry
     correction to one-el term =     191.73650394 Ry

     iteration # 37     ecut=    50.00 Ry     beta= 0.70
     Davidson diagonalization with overlap
     ethr =  4.96E-13,  avg # of iterations =  1.0

     negative rho (up, down):  1.352E-04 0.000E+00

     add environment contribution to local potential
     Polarization accuracy = 8.5E-12, # of iterations =  39

     total cpu time spent up to now is     6526.2 secs

     total energy              =   -3437.80457988 Ry
     estimated scf accuracy    <          1.8E-09 Ry
     electrostatic embedding   =      -0.02490336 Ry
     cavitation energy         =       0.02087800 Ry
     PV energy                 =      -0.08208866 Ry
     correction to one-el term =     191.73664112 Ry

     iteration # 38     ecut=    50.00 Ry     beta= 0.70
     Davidson diagonalization with overlap
     ethr =  4.96E-13,  avg # of iterations =  1.0

     negative rho (up, down):  1.372E-04 0.000E+00

     the potential shift due to the Gaussian-smeared nuclei is    -1.3368 ev

     total cpu time spent up to now is     6676.1 secs

     End of self-consistent calculation

          k = 0.2500 0.2666 0.0000 ( 35123 PWs)   bands (ev):

   -77.3699 -77.3656 -77.3581 -77.3538 -77.3518 -77.3475 -77.3396 -77.3353
   -77.2809 -77.2763 -77.2462 -77.2421 -47.6648 -47.6592 -47.6529 -47.6474
   -47.5734 -47.5693 -47.5635 -47.5580 -47.5513 -47.5459 -47.4545 -47.4502
   -47.3564 -47.3557 -47.3441 -47.3436 -47.3320 -47.2766 -47.2656 -47.2629
   -47.2553 -47.2439 -47.1973 -47.1915 -47.1869 -47.1854 -47.1794 -47.1749
   -47.1745 -47.1732 -47.1627 -47.1217 -47.1079 -47.1030 -47.0616 -47.0482
   -23.9814 -23.8753 -23.6423 -23.5055 -23.4892 -23.4669 -23.4274 -23.2490
   -23.1445 -23.1016 -23.0666 -22.8762 -22.8196 -22.8073 -22.8032 -22.7890
   -22.6669 -22.6405 -22.6076 -22.5808 -22.5664 -22.5433 -22.4631 -22.4146
   -22.4110 -22.3871 -22.3513 -22.2116 -12.1008 -11.9271 -11.8693 -11.8097
   -11.6905 -11.6505 -11.6270 -11.4384 -11.2684 -11.1961 -11.1510 -11.0948
   -11.0800 -10.9664 -10.8928 -10.8585 -10.8567 -10.8503 -10.7331 -10.6652
   -10.5975 -10.5577 -10.4747 -10.4318 -10.3374 -10.2901 -10.1224 -10.0827
   -10.0654  -9.8388  -9.8116  -9.6629  -9.6299  -9.4868  -9.4213  -9.3344
    -9.2837  -9.2678  -9.1012  -9.0207  -8.9813  -8.7839  -8.7800  -8.6931
    -8.6220  -8.5521  -8.5191  -8.4396  -8.2928  -8.2702  -8.1714  -8.1309
    -8.1018  -8.0963  -8.0328  -7.9676  -7.9608  -7.8889  -7.8858  -7.8018
    -7.7773  -7.6494  -7.6273  -7.5117  -7.4233  -7.3530  -7.2782  -7.1262
    -7.1064  -7.0664  -7.0303  -6.8598  -6.7606  -6.6857  -6.6758  -6.6380
    -6.5652  -6.5152  -6.3972  -6.3297  -6.2873  -6.2260  -6.0710  -6.0498
    -5.0032  -4.8619  -4.8303  -4.7815  -4.7404  -4.6757  -4.6618  -4.6378
    -4.6292  -4.6204  -4.5819  -4.5656  -4.5194  -4.4457  -4.4447  -4.4080
    -4.3963  -4.3707  -4.3425  -4.2452  -4.1449  -4.1307  -4.0292  -3.9821
    -3.8335  -3.8115  -3.7386  -3.4944  -3.2862  -3.2165  -3.1244  -3.0448
    -2.9751  -2.9273  -2.7646  -2.6581  -1.8887  -1.6889  -1.5421  -1.5320
    -1.4765  -1.3965  -1.2791  -0.6033  -0.5606  -0.2825  -0.2007  -0.1939
    -0.1237   0.0583   0.1738   0.1892   0.2005   0.3961   0.4076   0.6661
     0.7463   0.7872   0.7953   1.0486   1.1749

          k =-0.2500 0.2666 0.0000 ( 35123 PWs)   bands (ev):

   -77.3699 -77.3656 -77.3581 -77.3538 -77.3518 -77.3475 -77.3396 -77.3353
   -77.2809 -77.2763 -77.2462 -77.2421 -47.6645 -47.6596 -47.6527 -47.6477
   -47.5734 -47.5693 -47.5635 -47.5580 -47.5513 -47.5459 -47.4545 -47.4502
   -47.3571 -47.3560 -47.3447 -47.3418 -47.3299 -47.2749 -47.2653 -47.2625
   -47.2586 -47.2478 -47.1974 -47.1912 -47.1860 -47.1850 -47.1791 -47.1748
   -47.1738 -47.1729 -47.1629 -47.1211 -47.1085 -47.1030 -47.0616 -47.0482
   -23.9824 -23.8767 -23.6430 -23.5034 -23.4872 -23.4660 -23.4259 -23.2487
   -23.1453 -23.1021 -23.0662 -22.8748 -22.8212 -22.8095 -22.8052 -22.7903
   -22.6659 -22.6418 -22.6067 -22.5812 -22.5679 -22.5423 -22.4630 -22.4143
   -22.4100 -22.3865 -22.3505 -22.2115 -12.1048 -11.9329 -11.8708 -11.8071
   -11.6893 -11.6383 -11.6185 -11.4409 -11.2778 -11.1971 -11.1880 -11.1143
   -11.0730 -10.9680 -10.8917 -10.8598 -10.8537 -10.7786 -10.7153 -10.6445
   -10.6089 -10.6031 -10.4837 -10.4692 -10.3286 -10.2767 -10.1725 -10.0874
   -10.0135  -9.8273  -9.7036  -9.6638  -9.6587  -9.4735  -9.4285  -9.2984
    -9.2913  -9.2851  -9.1467  -9.0250  -8.9851  -8.8987  -8.7050  -8.6606
    -8.6169  -8.6047  -8.4768  -8.4501  -8.3191  -8.3084  -8.1674  -8.1307
    -8.1151  -8.1010  -8.0469  -8.0053  -7.9720  -7.9180  -7.7855  -7.7602
    -7.7183  -7.6243  -7.6239  -7.5396  -7.4491  -7.3653  -7.3214  -7.0622
    -7.0614  -7.0340  -7.0338  -6.8894  -6.8662  -6.7073  -6.6671  -6.6262
    -6.5050  -6.4771  -6.4564  -6.4504  -6.2867  -6.1313  -6.0689  -5.9952
    -5.0019  -4.9544  -4.7800  -4.7746  -4.7356  -4.7075  -4.6673  -4.6582
    -4.6276  -4.6204  -4.5661  -4.5553  -4.4910  -4.4503  -4.4355  -4.4248
    -4.3828  -4.3576  -4.3334  -4.2535  -4.2037  -4.1328  -4.0130  -3.9688
    -3.8411  -3.7713  -3.7480  -3.4928  -3.2811  -3.2246  -3.1348  -3.0451
    -2.9774  -2.9259  -2.7643  -2.6573  -1.8888  -1.6797  -1.5454  -1.5282
    -1.4756  -1.3972  -1.2798  -0.6081  -0.5597  -0.2849  -0.1923  -0.1902
    -0.1188   0.0639   0.1692   0.1802   0.1884   0.4036   0.4140   0.6650
     0.7364   0.7752   0.8066   1.0438   1.1673

     the Fermi energy is    -3.9501 ev

!    total energy              =   -3437.80457995 Ry
     estimated scf accuracy    <          6.7E-10 Ry
     smearing contrib. (-TS)   =       0.08788776 Ry
     internal energy E=F+TS    =   -3437.89246771 Ry

     The total energy is F=E-TS. E is the sum of the following terms:
     one-electron contribution =  -25424.54697198 Ry
     hartree contribution      =   12697.39900916 Ry
     xc contribution           =    -449.73482691 Ry
     ewald contribution        =    9813.81864581 Ry
     one-center paw contrib.   =    -266.47900707 Ry
     electrostatic embedding   =      -0.02490316 Ry
     cavitation energy         =       0.02087799 Ry
     PV energy                 =      -0.08208865 Ry
     correction to one-el term =     191.73679710 Ry

     WARNING: you are using the parabolic pbc correction;
              the potential shift above must be added to 
              band and Fermi energies.

     convergence has been achieved in  38 iterations

     negative rho (up, down):  1.372E-04 0.000E+00

     Forces acting on atoms (cartesian axes, Ry/au):

     atom    1 type  1   force =     0.00040801   -0.00320852   -0.00361423
     atom    2 type  1   force =     0.00001447   -0.00328223   -0.00343982
     atom    3 type  1   force =     0.00096512   -0.00011636   -0.00159749
     atom    4 type  1   force =     0.00096712   -0.00015428   -0.00156917
     atom    5 type  2   force =    -0.00067809    0.00060469    0.00256124
     atom    6 type  2   force =    -0.00068041    0.00060554    0.00256071
     atom    7 type  1   force =     0.00245719    0.00203900    0.00154231
     atom    8 type  1   force =     0.00245441    0.00203400    0.00154894
     atom    9 type  2   force =    -0.00665907    0.00192992   -0.00106445
     atom   10 type  2   force =    -0.00664125    0.00192909   -0.00108807
     atom   11 type  1   force =     0.00266575   -0.00009619    0.00023117
     atom   12 type  1   force =     0.00266364   -0.00009127    0.00023720
     atom   13 type  1   force =    -0.00004063   -0.00055702    0.00504705
     atom   14 type  1   force =    -0.00003726   -0.00055609    0.00504641
     atom   15 type  1   force =     0.00123456    0.00059252    0.00056381
     atom   16 type  1   force =     0.00123390    0.00059249    0.00056373
     atom   17 type  2   force =     0.00073061   -0.00015134    0.00000000
     atom   18 type  2   force =     0.00073026   -0.00015178    0.00000000
     atom   19 type  1   force =    -0.00056466   -0.00073568    0.00000000
     atom   20 type  1   force =    -0.00056431   -0.00073650    0.00000000
     atom   21 type  2   force =     0.00034685   -0.00032498    0.00000000
     atom   22 type  2   force =     0.00034835   -0.00032410    0.00000000
     atom   23 type  1   force =    -0.00059783    0.00016389    0.00000000
     atom   24 type  1   force =    -0.00059778    0.00016409    0.00000000
     atom   25 type  1   force =     0.00123456    0.00059252   -0.00056381
     atom   26 type  1   force =     0.00123390    0.00059249   -0.00056373
     atom   27 type  1   force =    -0.00004063   -0.00055702   -0.00504705
     atom   28 type  1   force =    -0.00003726   -0.00055609   -0.00504641
     atom   29 type  2   force =    -0.00067809    0.00060469   -0.00256124
     atom   30 type  2   force =    -0.00068041    0.00060554   -0.00256071
     atom   31 type  1   force =     0.00245719    0.00203900   -0.00154231
     atom   32 type  1   force =     0.00245441    0.00203400   -0.00154894
     atom   33 type  2   force =    -0.00665907    0.00192992    0.00106445
     atom   34 type  2   force =    -0.00664125    0.00192909    0.00108807
     atom   35 type  1   force =     0.00266575   -0.00009619   -0.00023117
     atom   36 type  1   force =     0.00266364   -0.00009127   -0.00023720
     atom   37 type  1   force =     0.00096512   -0.00011636    0.00159749
     atom   38 type  1   force =     0.00096712   -0.00015428    0.00156917
     atom   39 type  1   force =     0.00040801   -0.00320852    0.00361423
     atom   40 type  1   force =     0.00001447   -0.00328223    0.00343982
     atom   41 type  3   force =     0.00011616   -0.00123606   -0.00160582
     atom   42 type  3   force =     0.00011616   -0.00123606    0.00160582
     atom   43 type  3   force =     0.00048795   -0.00116102   -0.00175349
     atom   44 type  3   force =     0.00048795   -0.00116102    0.00175349
     atom   45 type  3   force =    -0.00042447    0.00057204    0.00103736
     atom   46 type  3   force =    -0.00042447    0.00057204   -0.00103736
     atom   47 type  3   force =    -0.00042287    0.00060795    0.00101208
     atom   48 type  3   force =    -0.00042287    0.00060795   -0.00101208
     The non-local contrib.  to forces
     atom    1 type  1   force =     1.71470923    0.28713146    0.29302187
     atom    2 type  1   force =     1.71466936    0.28715002    0.29296093
     atom    3 type  1   force =    -0.01273183    1.39379430   -0.02822636
     atom    4 type  1   force =    -0.01273628    1.39379994   -0.02823749
     atom    5 type  2   force =    -0.00133642    0.01307674    0.03986030
     atom    6 type  2   force =    -0.00133689    0.01307767    0.03986110
     atom    7 type  1   force =    -0.02268888   -0.07047143   -0.05085705
     atom    8 type  1   force =    -0.02268729   -0.07048428   -0.05083596
     atom    9 type  2   force =     0.00136840    0.01005022    0.04913536
     atom   10 type  2   force =     0.00135303    0.01004926    0.04913605
     atom   11 type  1   force =    -0.01708596    0.04781087    0.10593490
     atom   12 type  1   force =    -0.01708654    0.04782519    0.10595480
     atom   13 type  1   force =     0.00008968    0.04866102   -0.01211682
     atom   14 type  1   force =     0.00009171    0.04866069   -0.01211471
     atom   15 type  1   force =     0.02464495   -0.03316322    0.01265074
     atom   16 type  1   force =     0.02463989   -0.03316001    0.01261781
     atom   17 type  2   force =     0.01103634    0.00126778    0.00000000
     atom   18 type  2   force =     0.01103644    0.00126807    0.00000000
     atom   19 type  1   force =    -0.00883076    0.04886028    0.00000000
     atom   20 type  1   force =    -0.00883118    0.04886069    0.00000000
     atom   21 type  2   force =     0.00792413    0.00246774    0.00000000
     atom   22 type  2   force =     0.00792012    0.00246729    0.00000000
     atom   23 type  1   force =    -0.00819605   -0.04838450    0.00000000
     atom   24 type  1   force =    -0.00819567   -0.04838400    0.00000000
     atom   25 type  1   force =     0.02464495   -0.03316322   -0.01265074
     atom   26 type  1   force =     0.02463989   -0.03316001   -0.01261781
     atom   27 type  1   force =     0.00008968    0.04866102    0.01211682
     atom   28 type  1   force =     0.00009171    0.04866069    0.01211471
     atom   29 type  2   force =    -0.00133642    0.01307674   -0.03986030
     atom   30 type  2   force =    -0.00133689    0.01307767   -0.03986110
     atom   31 type  1   force =    -0.02268888   -0.07047143    0.05085705
     atom   32 type  1   force =    -0.02268729   -0.07048428    0.05083596
     atom   33 type  2   force =     0.00136840    0.01005022   -0.04913536
     atom   34 type  2   force =     0.00135303    0.01004926   -0.04913605
     atom   35 type  1   force =    -0.01708596    0.04781087   -0.10593490
     atom   36 type  1   force =    -0.01708654    0.04782519   -0.10595480
     atom   37 type  1   force =    -0.01273183    1.39379430    0.02822636
     atom   38 type  1   force =    -0.01273628    1.39379994    0.02823749
     atom   39 type  1   force =     1.71470923    0.28713146   -0.29302187
     atom   40 type  1   force =     1.71466936    0.28715002   -0.29296093
     atom   41 type  3   force =    -0.09709029   -0.01959656    0.04199330
     atom   42 type  3   force =    -0.09709029   -0.01959656   -0.04199330
     atom   43 type  3   force =    -0.09717396   -0.01961303    0.04202817
     atom   44 type  3   force =    -0.09717396   -0.01961303   -0.04202817
     atom   45 type  3   force =     0.00095138   -0.08245514    0.05917183
     atom   46 type  3   force =     0.00095138   -0.08245514   -0.05917183
     atom   47 type  3   force =     0.00095148   -0.08246446    0.05917822
     atom   48 type  3   force =     0.00095148   -0.08246446   -0.05917822
     The ionic contribution  to forces
     atom    1 type  1   force =    -2.84994555    0.00238187  -95.04871470
     atom    2 type  1   force =    -2.85169021    0.00219496  -95.04727752
     atom    3 type  1   force =     0.04894863   -3.40475097  -91.90325962
     atom    4 type  1   force =     0.04881210   -3.40487178  -91.90310356
     atom    5 type  2   force =     0.04034304   -2.00036389 -169.98552319
     atom    6 type  2   force =     0.04010863   -2.00040641 -169.98533248
     atom    7 type  1   force =     0.11691954   -0.68754799  -61.58446988
     atom    8 type  1   force =     0.11682015   -0.68759595  -61.58428125
     atom    9 type  2   force =    -0.30673481    2.26046585 -168.91600720
     atom   10 type  2   force =    -0.30742932    2.26030409 -168.91628036
     atom   11 type  1   force =     0.17616033    1.28256617  -66.49792108
     atom   12 type  1   force =     0.17608031    1.28263033  -66.49777529
     atom   13 type  1   force =    -0.02068855   -0.54361628  -37.96413375
     atom   14 type  1   force =    -0.02069682   -0.54362096  -37.96418186
     atom   15 type  1   force =    -0.18196056    0.30205278  -25.58480736
     atom   16 type  1   force =    -0.18194838    0.30205423  -25.58473925
     atom   17 type  2   force =     0.17376664    0.46666342   -0.00044134
     atom   18 type  2   force =     0.17378806    0.46666240   -0.00044134
     atom   19 type  1   force =     0.00905187    1.02914734   -0.00008316
     atom   20 type  1   force =     0.00906669    1.02913079   -0.00008316
     atom   21 type  2   force =     0.18420055   -0.06445383   -0.00025940
     atom   22 type  2   force =     0.18429345   -0.06444467   -0.00025940
     atom   23 type  1   force =    -0.01295988   -1.07119755   -0.00008180
     atom   24 type  1   force =    -0.01295140   -1.07119180   -0.00008180
     atom   25 type  1   force =    -0.18196727    0.30205354   25.58460933
     atom   26 type  1   force =    -0.18195509    0.30205499   25.58454121
     atom   27 type  1   force =    -0.02068921   -0.54362381   37.96442810
     atom   28 type  1   force =    -0.02069748   -0.54362849   37.96447620
     atom   29 type  2   force =     0.04034498   -2.00036275  169.98580844
     atom   30 type  2   force =     0.04011058   -2.00040526  169.98561773
     atom   31 type  1   force =     0.11692062   -0.68757719   61.58453251
     atom   32 type  1   force =     0.11682124   -0.68762516   61.58434388
     atom   33 type  2   force =    -0.30674173    2.26047196  168.91613546
     atom   34 type  2   force =    -0.30743624    2.26031020  168.91640862
     atom   35 type  1   force =     0.17616155    1.28259681   66.49798293
     atom   36 type  1   force =     0.17608152    1.28266097   66.49783713
     atom   37 type  1   force =     0.04894875   -3.40498430   91.90333040
     atom   38 type  1   force =     0.04881221   -3.40510513   91.90317434
     atom   39 type  1   force =    -2.85002385    0.00237174   95.04883505
     atom   40 type  1   force =    -2.85176855    0.00218482   95.04739791
     atom   41 type  3   force =     2.82395621    0.74790718  -16.35623762
     atom   42 type  3   force =     2.82403861    0.74792327   16.35625134
     atom   43 type  3   force =     2.82551473    0.74822338  -16.35695715
     atom   44 type  3   force =     2.82559719    0.74823948   16.35697084
     atom   45 type  3   force =    -0.02331324    1.86082285  -17.08610416
     atom   46 type  3   force =    -0.02331502    1.86103971   17.08613071
     atom   47 type  3   force =    -0.02337664    1.86102108  -17.08620642
     atom   48 type  3   force =    -0.02337842    1.86123796   17.08623297
     The local contribution  to forces
     atom    1 type  1   force =     1.13101261   -0.24631295   94.75055906
     atom    2 type  1   force =     1.13240787   -0.24621944   94.74935636
     atom    3 type  1   force =    -0.03752455    1.97722060   91.93006760
     atom    4 type  1   force =    -0.03740262    1.97729762   91.92994781
     atom    5 type  2   force =    -0.03878953    1.95646299  169.94631514
     atom    6 type  2   force =    -0.03856599    1.95650567  169.94611577
     atom    7 type  1   force =    -0.09154199    0.76379836   61.64494889
     atom    8 type  1   force =    -0.09145413    0.76387022   61.64474184
     atom    9 type  2   force =     0.29667992   -2.24089158  168.86317234
     atom   10 type  2   force =     0.29738839   -2.24072961  168.86341668
     atom   11 type  1   force =    -0.15548442   -1.32454715   66.38218556
     atom   12 type  1   force =    -0.15541353   -1.32463703   66.38202042
     atom   13 type  1   force =     0.02052350    0.49155226   37.98044849
     atom   14 type  1   force =     0.02050168    0.49155814   37.98049319
     atom   15 type  1   force =     0.15878315   -0.26706093   25.57210372
     atom   16 type  1   force =     0.15876075   -0.26706558   25.57206527
     atom   17 type  2   force =    -0.18406442   -0.47035165   -0.00586525
     atom   18 type  2   force =    -0.18411429   -0.47035145   -0.00586525
     atom   19 type  1   force =    -0.00089052   -1.07881511   -0.00244790
     atom   20 type  1   force =    -0.00090616   -1.07880307   -0.00244789
     atom   21 type  2   force =    -0.19176745    0.06391882   -0.00600967
     atom   22 type  2   force =    -0.19186039    0.06391090   -0.00600968
     atom   23 type  1   force =     0.02044563    1.11917310   -0.00245082
     atom   24 type  1   force =     0.02043521    1.11917034   -0.00245082
     atom   25 type  1   force =     0.15877798   -0.26707061  -25.57385476
     atom   26 type  1   force =     0.15875558   -0.26707525  -25.57381632
     atom   27 type  1   force =     0.02052343    0.49155266  -37.98223378
     atom   28 type  1   force =     0.02050161    0.49155855  -37.98227848
     atom   29 type  2   force =    -0.03878707    1.95648888 -169.95235949
     atom   30 type  2   force =    -0.03856353    1.95653156 -169.95216011
     atom   31 type  1   force =    -0.09154189    0.76380539  -61.64739280
     atom   32 type  1   force =    -0.09145402    0.76387725  -61.64718574
     atom   33 type  2   force =     0.29667811   -2.24093997 -168.86900075
     atom   34 type  2   force =     0.29738661   -2.24077799 -168.86924509
     atom   35 type  1   force =    -0.15548329   -1.32456137  -66.38464050
     atom   36 type  1   force =    -0.15541240   -1.32465125  -66.38447535
     atom   37 type  1   force =    -0.03752302    1.97734124  -91.93385481
     atom   38 type  1   force =    -0.03740108    1.97741828  -91.93373502
     atom   39 type  1   force =     1.13103663   -0.24633480  -94.75213658
     atom   40 type  1   force =     1.13243194   -0.24624127  -94.75093396
     atom   41 type  3   force =    -2.73355224   -0.72494017   16.32188771
     atom   42 type  3   force =    -2.73355224   -0.72494017  -16.32188771
     atom   43 type  3   force =    -2.73465541   -0.72516391   16.32241983
     atom   44 type  3   force =    -2.73465541   -0.72516391  -16.32241983
     atom   45 type  3   force =     0.02068997   -1.78252693   17.03788677
     atom   46 type  3   force =     0.02068997   -1.78252693  -17.03788677
     atom   47 type  3   force =     0.02075524   -1.78267968   17.03795575
     atom   48 type  3   force =     0.02075524   -1.78267968  -17.03795575
     The core correction contribution to forces
     atom    1 type  1   force =    -0.01719829   -0.00280993   -0.00328683
     atom    2 type  1   force =    -0.01719314   -0.00280927   -0.00328819
     atom    3 type  1   force =     0.00010882   -0.01370250   -0.00026626
     atom    4 type  1   force =     0.00010890   -0.01370210   -0.00026647
     atom    5 type  2   force =     0.00000000    0.00000000    0.00000000
     atom    6 type  2   force =     0.00000000    0.00000000    0.00000000
     atom    7 type  1   force =     0.00023440    0.00038998    0.00047739
     atom    8 type  1   force =     0.00023440    0.00039009    0.00047714
     atom    9 type  2   force =     0.00000000    0.00000000    0.00000000
     atom   10 type  2   force =     0.00000000    0.00000000    0.00000000
     atom   11 type  1   force =     0.00016269   -0.00010114   -0.00101551
     atom   12 type  1   force =     0.00016272   -0.00010126   -0.00101574
     atom   13 type  1   force =     0.00000714   -0.00054674   -0.00008240
     atom   14 type  1   force =     0.00000715   -0.00054673   -0.00008242
     atom   15 type  1   force =    -0.00023699    0.00036618   -0.00038315
     atom   16 type  1   force =    -0.00023692    0.00036613   -0.00038274
     atom   17 type  2   force =     0.00000000    0.00000000    0.00000000
     atom   18 type  2   force =     0.00000000    0.00000000    0.00000000
     atom   19 type  1   force =     0.00010743   -0.00025297   -0.00000205
     atom   20 type  1   force =     0.00010744   -0.00025297   -0.00000205
     atom   21 type  2   force =     0.00000000    0.00000000    0.00000000
     atom   22 type  2   force =     0.00000000    0.00000000    0.00000000
     atom   23 type  1   force =     0.00011582    0.00025291   -0.00000195
     atom   24 type  1   force =     0.00011581    0.00025290   -0.00000195
     atom   25 type  1   force =    -0.00023700    0.00036629    0.00038101
     atom   26 type  1   force =    -0.00023693    0.00036624    0.00038059
     atom   27 type  1   force =     0.00000715   -0.00054686    0.00008011
     atom   28 type  1   force =     0.00000716   -0.00054685    0.00008013
     atom   29 type  2   force =     0.00000000    0.00000000    0.00000000
     atom   30 type  2   force =     0.00000000    0.00000000    0.00000000
     atom   31 type  1   force =     0.00023440    0.00039009   -0.00047932
     atom   32 type  1   force =     0.00023440    0.00039020   -0.00047907
     atom   33 type  2   force =     0.00000000    0.00000000    0.00000000
     atom   34 type  2   force =     0.00000000    0.00000000    0.00000000
     atom   35 type  1   force =     0.00016274   -0.00010120    0.00101344
     atom   36 type  1   force =     0.00016276   -0.00010132    0.00101368
     atom   37 type  1   force =     0.00010883   -0.01370462    0.00026236
     atom   38 type  1   force =     0.00010890   -0.01370421    0.00026256
     atom   39 type  1   force =    -0.01719905   -0.00281003    0.00328442
     atom   40 type  1   force =    -0.01719390   -0.00280938    0.00328578
     atom   41 type  3   force =     0.00000000    0.00000000    0.00000000
     atom   42 type  3   force =     0.00000000    0.00000000    0.00000000
     atom   43 type  3   force =     0.00000000    0.00000000    0.00000000
     atom   44 type  3   force =     0.00000000    0.00000000    0.00000000
     atom   45 type  3   force =     0.00000000    0.00000000    0.00000000
     atom   46 type  3   force =     0.00000000    0.00000000    0.00000000
     atom   47 type  3   force =     0.00000000    0.00000000    0.00000000
     atom   48 type  3   force =     0.00000000    0.00000000    0.00000000
     The Hubbard contrib.    to forces
     atom    1 type  1   force =     0.00000000    0.00000000    0.00000000
     atom    2 type  1   force =     0.00000000    0.00000000    0.00000000
     atom    3 type  1   force =     0.00000000    0.00000000    0.00000000
     atom    4 type  1   force =     0.00000000    0.00000000    0.00000000
     atom    5 type  2   force =     0.00000000    0.00000000    0.00000000
     atom    6 type  2   force =     0.00000000    0.00000000    0.00000000
     atom    7 type  1   force =     0.00000000    0.00000000    0.00000000
     atom    8 type  1   force =     0.00000000    0.00000000    0.00000000
     atom    9 type  2   force =     0.00000000    0.00000000    0.00000000
     atom   10 type  2   force =     0.00000000    0.00000000    0.00000000
     atom   11 type  1   force =     0.00000000    0.00000000    0.00000000
     atom   12 type  1   force =     0.00000000    0.00000000    0.00000000
     atom   13 type  1   force =     0.00000000    0.00000000    0.00000000
     atom   14 type  1   force =     0.00000000    0.00000000    0.00000000
     atom   15 type  1   force =     0.00000000    0.00000000    0.00000000
     atom   16 type  1   force =     0.00000000    0.00000000    0.00000000
     atom   17 type  2   force =     0.00000000    0.00000000    0.00000000
     atom   18 type  2   force =     0.00000000    0.00000000    0.00000000
     atom   19 type  1   force =     0.00000000    0.00000000    0.00000000
     atom   20 type  1   force =     0.00000000    0.00000000    0.00000000
     atom   21 type  2   force =     0.00000000    0.00000000    0.00000000
     atom   22 type  2   force =     0.00000000    0.00000000    0.00000000
     atom   23 type  1   force =     0.00000000    0.00000000    0.00000000
     atom   24 type  1   force =     0.00000000    0.00000000    0.00000000
     atom   25 type  1   force =     0.00000000    0.00000000    0.00000000
     atom   26 type  1   force =     0.00000000    0.00000000    0.00000000
     atom   27 type  1   force =     0.00000000    0.00000000    0.00000000
     atom   28 type  1   force =     0.00000000    0.00000000    0.00000000
     atom   29 type  2   force =     0.00000000    0.00000000    0.00000000
     atom   30 type  2   force =     0.00000000    0.00000000    0.00000000
     atom   31 type  1   force =     0.00000000    0.00000000    0.00000000
     atom   32 type  1   force =     0.00000000    0.00000000    0.00000000
     atom   33 type  2   force =     0.00000000    0.00000000    0.00000000
     atom   34 type  2   force =     0.00000000    0.00000000    0.00000000
     atom   35 type  1   force =     0.00000000    0.00000000    0.00000000
     atom   36 type  1   force =     0.00000000    0.00000000    0.00000000
     atom   37 type  1   force =     0.00000000    0.00000000    0.00000000
     atom   38 type  1   force =     0.00000000    0.00000000    0.00000000
     atom   39 type  1   force =     0.00000000    0.00000000    0.00000000
     atom   40 type  1   force =     0.00000000    0.00000000    0.00000000
     atom   41 type  3   force =     0.00000000    0.00000000    0.00000000
     atom   42 type  3   force =     0.00000000    0.00000000    0.00000000
     atom   43 type  3   force =     0.00000000    0.00000000    0.00000000
     atom   44 type  3   force =     0.00000000    0.00000000    0.00000000
     atom   45 type  3   force =     0.00000000    0.00000000    0.00000000
     atom   46 type  3   force =     0.00000000    0.00000000    0.00000000
     atom   47 type  3   force =     0.00000000    0.00000000    0.00000000
     atom   48 type  3   force =     0.00000000    0.00000000    0.00000000
     The SCF correction term to forces
     atom    1 type  1   force =    -0.00000251    0.00001170    0.00000038
     atom    2 type  1   force =     0.00000201    0.00001146   -0.00000232
     atom    3 type  1   force =    -0.00001448   -0.00001029    0.00000281
     atom    4 type  1   force =     0.00001391   -0.00001044    0.00000224
     atom    5 type  2   force =    -0.00000222   -0.00001526   -0.00000132
     atom    6 type  2   force =     0.00000244   -0.00001551   -0.00000048
     atom    7 type  1   force =    -0.00000270    0.00001292    0.00000097
     atom    8 type  1   force =     0.00000284   -0.00000301    0.00000210
     atom    9 type  2   force =    -0.00001407    0.00001572   -0.00000706
     atom   10 type  2   force =     0.00001416    0.00001550   -0.00000694
     atom   11 type  1   force =    -0.00000281   -0.00000801   -0.00000529
     atom   12 type  1   force =     0.00000295    0.00000817   -0.00000347
     atom   13 type  1   force =    -0.00001622   -0.00000370   -0.00000437
     atom   14 type  1   force =     0.00001614   -0.00000366   -0.00000422
     atom   15 type  1   force =    -0.00000751    0.00000198    0.00000426
     atom   16 type  1   force =     0.00000757    0.00000199    0.00000679
     atom   17 type  2   force =    -0.00001454   -0.00000292    0.00002850
     atom   18 type  2   force =     0.00001420   -0.00000282    0.00002850
     atom   19 type  1   force =    -0.00000074    0.00000731    0.00001031
     atom   20 type  1   force =     0.00000068    0.00001058    0.00001031
     atom   21 type  2   force =    -0.00000258    0.00000268    0.00002881
     atom   22 type  2   force =     0.00000254    0.00000279    0.00002881
     atom   23 type  1   force =    -0.00000075   -0.00000826    0.00001053
     atom   24 type  1   force =     0.00000071   -0.00001154    0.00001053
     atom   25 type  1   force =    -0.00000750    0.00000222    0.00001063
     atom   26 type  1   force =     0.00000758    0.00000223    0.00000810
     atom   27 type  1   force =    -0.00001622   -0.00000404    0.00001240
     atom   28 type  1   force =     0.00001614   -0.00000400    0.00001226
     atom   29 type  2   force =    -0.00000222   -0.00001633    0.00000054
     atom   30 type  2   force =     0.00000244   -0.00001658   -0.00000031
     atom   31 type  1   force =    -0.00000271    0.00001267   -0.00000097
     atom   32 type  1   force =     0.00000284   -0.00000327   -0.00000210
     atom   33 type  2   force =    -0.00001407    0.00001678    0.00000507
     atom   34 type  2   force =     0.00001416    0.00001656    0.00000494
     atom   35 type  1   force =    -0.00000282   -0.00000743    0.00000463
     atom   36 type  1   force =     0.00000294    0.00000875    0.00000281
     atom   37 type  1   force =    -0.00001448   -0.00001045   -0.00000582
     atom   38 type  1   force =     0.00001391   -0.00001060   -0.00000525
     atom   39 type  1   force =    -0.00000245    0.00001171   -0.00000312
     atom   40 type  1   force =     0.00000206    0.00001147   -0.00000042
     atom   41 type  3   force =    -0.00000045    0.00000119   -0.00000028
     atom   42 type  3   force =    -0.00000050    0.00000118   -0.00000034
     atom   43 type  3   force =     0.00000026    0.00000120   -0.00000017
     atom   44 type  3   force =     0.00000021    0.00000119   -0.00000045
     atom   45 type  3   force =    -0.00000110    0.00000009   -0.00000043
     atom   46 type  3   force =    -0.00000110    0.00000005   -0.00000014
     atom   47 type  3   force =     0.00000103   -0.00000001   -0.00000060
     atom   48 type  3   force =     0.00000103   -0.00000005    0.00000002

     Total force =     0.023469     Total SCF correction =     0.000110

     BFGS Geometry Optimization
     Energy error            =      0.0E+00 Ry
     Gradient error          =      6.7E-03 Ry/Bohr

     number of scf cycles    =   1
     number of bfgs steps    =   0

     energy             new  =   -3437.8045799475 Ry

     new trust radius        =       0.0070143284 bohr
     new conv_thr            =       0.0000000010 Ry


ATOMIC_POSITIONS (crystal)
O            -0.0065482364        0.4634084689        0.2685820115
O             0.4934363752        0.4634053608        0.2685839723
O            -0.0006779854        0.0104696789        0.3008419355
O             0.4993221012        0.0104684329        0.3008422236
Ru            0.2497048873       -0.0013923975        0.3581112546
Ru            0.7497048135       -0.0013923685        0.3581112556
O             0.2488032021        0.3098158155        0.3595181428
O             0.7488030043        0.3098155365        0.3595182133
Ru           -0.0006711593        0.4982382359        0.3570150001
Ru            0.4993294913        0.4982382076        0.3570147432
O             0.2481898144        0.6871864317        0.3537658637
O             0.7481896689        0.6871867016        0.3537659307
O            -0.0002432687       -0.0046212595        0.4107854034
O             0.4997569229       -0.0046212278        0.4107853900
O            -0.0005423814        0.5057350292        0.4450779433
O             0.4994576021        0.5057350262        0.4450779410
Ru            0.0007104736        0.0036325970        0.5000010000
Ru            0.5007104321        0.0036325861        0.5000010000
O             0.2513252124        0.1917653638        0.5000010000
O             0.7513252426        0.1917653575        0.5000010000
Ru            0.2474757792        0.5043815016        0.5000010000
Ru            0.7474757994        0.5043815344        0.5000010000
O             0.2515557076        0.8166952462        0.5000010000
O             0.7515557234        0.8166952105        0.5000010000
O            -0.0005423814        0.5057350292        0.5549230567
O             0.4994576021        0.5057350262        0.5549230590
O            -0.0002432687       -0.0046212595        0.5892155966
O             0.4997569229       -0.0046212278        0.5892156100
Ru            0.2497048873       -0.0013923975        0.6418897454
Ru            0.7497048135       -0.0013923685        0.6418897444
O             0.2488032021        0.3098158155        0.6404828572
O             0.7488030043        0.3098155365        0.6404827867
Ru           -0.0006711593        0.4982382359        0.6429859999
Ru            0.4993294913        0.4982382076        0.6429862568
O             0.2481898144        0.6871864317        0.6462351363
O             0.7481896689        0.6871867016        0.6462350693
O            -0.0006779854        0.0104696789        0.6991600645
O             0.4993221012        0.0104684329        0.6991597764
O            -0.0065482364        0.4634084689        0.7314189885
O             0.4934363752        0.4634053608        0.7314170277
H             0.1310380162        0.4925356067        0.2521670760
H             0.1310380162        0.4925356067        0.7478329240
H             0.6310524353        0.4925387239        0.2521653912
H             0.6310524353        0.4925387239        0.7478346088
H            -0.0019512730        0.1446035119        0.2753028611
H            -0.0019512730        0.1446035119        0.7246971389
H             0.4980487842        0.1446047868        0.2753026051
H             0.4980487842        0.1446047868        0.7246973949



     Writing config-only to output data dir /storage/home/mgm6007/ixd4/Maria/Strain2_Files/RuO2-110-0-0123/RuO2-110-0-0123.save/
     NEW-OLD atomic charge density approx. for the potential

     Check: negative core charge=   -0.000001

     negative rho (up, down):  1.367E-04 0.000E+00

     add environment contribution to local potential
     Polarization accuracy = 3.3E-12, # of iterations =  40

     total cpu time spent up to now is     6834.4 secs

     per-process dynamical memory:   217.6 Mb

     Self-consistent Calculation

     iteration #  1     ecut=    50.00 Ry     beta= 0.70
     Davidson diagonalization with overlap
     ethr =  1.00E-06,  avg # of iterations =  3.0

     Threshold (ethr) on eigenvalues was too large:
     Diagonalizing with lowered threshold

     Davidson diagonalization with overlap
     ethr =  5.91E-08,  avg # of iterations =  2.0

     negative rho (up, down):  1.701E-04 0.000E+00

     add environment contribution to local potential
     Polarization accuracy = 1.4E-12, # of iterations =  40

     total cpu time spent up to now is     6999.8 secs

     total energy              =   -3437.80502101 Ry
     estimated scf accuracy    <       0.00021742 Ry
     electrostatic embedding   =      -0.02486011 Ry
     cavitation energy         =       0.02088901 Ry
     PV energy                 =      -0.08209676 Ry
     correction to one-el term =     191.74777675 Ry

     iteration #  2     ecut=    50.00 Ry     beta= 0.70
     Davidson diagonalization with overlap
     ethr =  5.91E-08,  avg # of iterations =  1.0

     negative rho (up, down):  1.818E-04 0.000E+00

     add environment contribution to local potential
     Polarization accuracy = 1.4E-12, # of iterations =  41

     total cpu time spent up to now is     7159.4 secs

     total energy              =   -3437.80502234 Ry
     estimated scf accuracy    <       0.00035607 Ry
     electrostatic embedding   =      -0.02487886 Ry
     cavitation energy         =       0.02088970 Ry
     PV energy                 =      -0.08209024 Ry
     correction to one-el term =     191.77523925 Ry

     iteration #  3     ecut=    50.00 Ry     beta= 0.70
     Davidson diagonalization with overlap
     ethr =  5.91E-08,  avg # of iterations =  1.0

     negative rho (up, down):  2.312E-04 0.000E+00

     add environment contribution to local potential
     Polarization accuracy = 1.6E-12, # of iterations =  40

     total cpu time spent up to now is     7325.0 secs

     total energy              =   -3437.80503548 Ry
     estimated scf accuracy    <       0.00002821 Ry
     electrostatic embedding   =      -0.02487516 Ry
     cavitation energy         =       0.02088878 Ry
     PV energy                 =      -0.08209034 Ry
     correction to one-el term =     191.78166863 Ry

     iteration #  4     ecut=    50.00 Ry     beta= 0.70
     Davidson diagonalization with overlap
     ethr =  7.67E-09,  avg # of iterations =  1.0

     negative rho (up, down):  2.372E-04 0.000E+00

     add environment contribution to local potential
     Polarization accuracy = 1.6E-12, # of iterations =  40

     total cpu time spent up to now is     7477.7 secs

     total energy              =   -3437.80503640 Ry
     estimated scf accuracy    <       0.00000854 Ry
     electrostatic embedding   =      -0.02486860 Ry
     cavitation energy         =       0.02088796 Ry
     PV energy                 =      -0.08208886 Ry
     correction to one-el term =     191.81490591 Ry

     iteration #  5     ecut=    50.00 Ry     beta= 0.70
     Davidson diagonalization with overlap
     ethr =  2.32E-09,  avg # of iterations =  1.0

     negative rho (up, down):  2.441E-04 0.000E+00

     add environment contribution to local potential
     Polarization accuracy = 8.6E-12, # of iterations =  39

     total cpu time spent up to now is     7645.7 secs

     total energy              =   -3437.80503642 Ry
     estimated scf accuracy    <       0.00000438 Ry
     electrostatic embedding   =      -0.02486449 Ry
     cavitation energy         =       0.02088764 Ry
     PV energy                 =      -0.08208952 Ry
     correction to one-el term =     191.82094320 Ry

     iteration #  6     ecut=    50.00 Ry     beta= 0.70
     Davidson diagonalization with overlap
     ethr =  1.19E-09,  avg # of iterations =  1.0

     negative rho (up, down):  2.386E-04 0.000E+00

     add environment contribution to local potential
     Polarization accuracy = 8.1E-12, # of iterations =  39

     total cpu time spent up to now is     7801.6 secs

     total energy              =   -3437.80503646 Ry
     estimated scf accuracy    <       0.00000210 Ry
     electrostatic embedding   =      -0.02485440 Ry
     cavitation energy         =       0.02088696 Ry
     PV energy                 =      -0.08209132 Ry
     correction to one-el term =     191.83254762 Ry

     iteration #  7     ecut=    50.00 Ry     beta= 0.70
     Davidson diagonalization with overlap
     ethr =  5.69E-10,  avg # of iterations =  1.0

     negative rho (up, down):  2.302E-04 0.000E+00

     add environment contribution to local potential
     Polarization accuracy = 1.9E-12, # of iterations =  40

     total cpu time spent up to now is     7947.9 secs

     total energy              =   -3437.80503665 Ry
     estimated scf accuracy    <       0.00000093 Ry
     electrostatic embedding   =      -0.02484058 Ry
     cavitation energy         =       0.02088614 Ry
     PV energy                 =      -0.08209415 Ry
     correction to one-el term =     191.84522274 Ry

     iteration #  8     ecut=    50.00 Ry     beta= 0.70
     Davidson diagonalization with overlap
     ethr =  2.54E-10,  avg # of iterations =  1.0

     negative rho (up, down):  2.028E-04 0.000E+00

     add environment contribution to local potential
     Polarization accuracy = 1.4E-12, # of iterations =  41

     total cpu time spent up to now is     8123.0 secs

     total energy              =   -3437.80503679 Ry
     estimated scf accuracy    <       0.00000020 Ry
     electrostatic embedding   =      -0.02483568 Ry
     cavitation energy         =       0.02088586 Ry
     PV energy                 =      -0.08209527 Ry
     correction to one-el term =     191.84928856 Ry

     iteration #  9     ecut=    50.00 Ry     beta= 0.70
     Davidson diagonalization with overlap
     ethr =  5.50E-11,  avg # of iterations =  2.0

     negative rho (up, down):  1.859E-04 0.000E+00

     add environment contribution to local potential
     Polarization accuracy = 1.4E-12, # of iterations =  41

     total cpu time spent up to now is     8284.0 secs

     total energy              =   -3437.80503697 Ry
     estimated scf accuracy    <       0.00000007 Ry
     electrostatic embedding   =      -0.02482969 Ry
     cavitation energy         =       0.02088560 Ry
     PV energy                 =      -0.08209700 Ry
     correction to one-el term =     191.85287660 Ry

     iteration # 10     ecut=    50.00 Ry     beta= 0.70
     Davidson diagonalization with overlap
     ethr =  2.03E-11,  avg # of iterations =  2.0

     negative rho (up, down):  1.643E-04 0.000E+00

     add environment contribution to local potential
     Polarization accuracy = 1.4E-12, # of iterations =  41

     total cpu time spent up to now is     8441.7 secs

     total energy              =   -3437.80503704 Ry
[...]
     The core correction contribution to forces
     atom    1 type  1   force =    -0.01700188   -0.00299061   -0.00283744
     atom    2 type  1   force =    -0.01700196   -0.00299064   -0.00283754
     atom    3 type  1   force =     0.00011590   -0.01292714   -0.00195795
     atom    4 type  1   force =     0.00011596   -0.01292713   -0.00195796
     atom    5 type  2   force =     0.00000000    0.00000000    0.00000000
     atom    6 type  2   force =     0.00000000    0.00000000    0.00000000
     atom    7 type  1   force =     0.00021508    0.00042812    0.00098928
     atom    8 type  1   force =     0.00021506    0.00042811    0.00098937
     atom    9 type  2   force =     0.00000000    0.00000000    0.00000000
     atom   10 type  2   force =     0.00000000    0.00000000    0.00000000
     atom   11 type  1   force =     0.00013383   -0.00013948   -0.00136665
     atom   12 type  1   force =     0.00013374   -0.00013947   -0.00136658
     atom   13 type  1   force =    -0.00002256   -0.00058384   -0.00013747
     atom   14 type  1   force =    -0.00002258   -0.00058386   -0.00013747
     atom   15 type  1   force =     0.00017823    0.00058981   -0.00022335
     atom   16 type  1   force =     0.00017824    0.00058981   -0.00022342
     atom   17 type  2   force =     0.00000000    0.00000000    0.00000000
     atom   18 type  2   force =     0.00000000    0.00000000    0.00000000
     atom   19 type  1   force =    -0.00023579   -0.00027386   -0.00000205
     atom   20 type  1   force =    -0.00023578   -0.00027385   -0.00000205
     atom   21 type  2   force =     0.00000000    0.00000000    0.00000000
     atom   22 type  2   force =     0.00000000    0.00000000    0.00000000
     atom   23 type  1   force =    -0.00024424    0.00022031   -0.00000192
     atom   24 type  1   force =    -0.00024422    0.00022030   -0.00000192
     atom   25 type  1   force =     0.00017820    0.00059002    0.00022112
     atom   26 type  1   force =     0.00017820    0.00059002    0.00022119
     atom   27 type  1   force =    -0.00002255   -0.00058397    0.00013520
     atom   28 type  1   force =    -0.00002258   -0.00058399    0.00013520
     atom   29 type  2   force =     0.00000000    0.00000000    0.00000000
     atom   30 type  2   force =     0.00000000    0.00000000    0.00000000
     atom   31 type  1   force =     0.00021508    0.00042823   -0.00099118
     atom   32 type  1   force =     0.00021507    0.00042823   -0.00099127
     atom   33 type  2   force =     0.00000000    0.00000000    0.00000000
     atom   34 type  2   force =     0.00000000    0.00000000    0.00000000
     atom   35 type  1   force =     0.00013387   -0.00013955    0.00136455
     atom   36 type  1   force =     0.00013377   -0.00013954    0.00136448
     atom   37 type  1   force =     0.00011592   -0.01292898    0.00195420
     atom   38 type  1   force =     0.00011599   -0.01292897    0.00195420
     atom   39 type  1   force =    -0.01700264   -0.00299066    0.00283493
     atom   40 type  1   force =    -0.01700273   -0.00299069    0.00283504
     atom   41 type  3   force =     0.00000000    0.00000000    0.00000000
     atom   42 type  3   force =     0.00000000    0.00000000    0.00000000
     atom   43 type  3   force =     0.00000000    0.00000000    0.00000000
     atom   44 type  3   force =     0.00000000    0.00000000    0.00000000
     atom   45 type  3   force =     0.00000000    0.00000000    0.00000000
     atom   46 type  3   force =     0.00000000    0.00000000    0.00000000
     atom   47 type  3   force =     0.00000000    0.00000000    0.00000000
     atom   48 type  3   force =     0.00000000    0.00000000    0.00000000
     The Hubbard contrib.    to forces
     atom    1 type  1   force =     0.00000000    0.00000000    0.00000000
     atom    2 type  1   force =     0.00000000    0.00000000    0.00000000
     atom    3 type  1   force =     0.00000000    0.00000000    0.00000000
     atom    4 type  1   force =     0.00000000    0.00000000    0.00000000
     atom    5 type  2   force =     0.00000000    0.00000000    0.00000000
     atom    6 type  2   force =     0.00000000    0.00000000    0.00000000
     atom    7 type  1   force =     0.00000000    0.00000000    0.00000000
     atom    8 type  1   force =     0.00000000    0.00000000    0.00000000
     atom    9 type  2   force =     0.00000000    0.00000000    0.00000000
     atom   10 type  2   force =     0.00000000    0.00000000    0.00000000
     atom   11 type  1   force =     0.00000000    0.00000000    0.00000000
     atom   12 type  1   force =     0.00000000    0.00000000    0.00000000
     atom   13 type  1   force =     0.00000000    0.00000000    0.00000000
     atom   14 type  1   force =     0.00000000    0.00000000    0.00000000
     atom   15 type  1   force =     0.00000000    0.00000000    0.00000000
     atom   16 type  1   force =     0.00000000    0.00000000    0.00000000
     atom   17 type  2   force =     0.00000000    0.00000000    0.00000000
     atom   18 type  2   force =     0.00000000    0.00000000    0.00000000
     atom   19 type  1   force =     0.00000000    0.00000000    0.00000000
     atom   20 type  1   force =     0.00000000    0.00000000    0.00000000
     atom   21 type  2   force =     0.00000000    0.00000000    0.00000000
     atom   22 type  2   force =     0.00000000    0.00000000    0.00000000
     atom   23 type  1   force =     0.00000000    0.00000000    0.00000000
     atom   24 type  1   force =     0.00000000    0.00000000    0.00000000
     atom   25 type  1   force =     0.00000000    0.00000000    0.00000000
     atom   26 type  1   force =     0.00000000    0.00000000    0.00000000
     atom   27 type  1   force =     0.00000000    0.00000000    0.00000000
     atom   28 type  1   force =     0.00000000    0.00000000    0.00000000
     atom   29 type  2   force =     0.00000000    0.00000000    0.00000000
     atom   30 type  2   force =     0.00000000    0.00000000    0.00000000
     atom   31 type  1   force =     0.00000000    0.00000000    0.00000000
     atom   32 type  1   force =     0.00000000    0.00000000    0.00000000
     atom   33 type  2   force =     0.00000000    0.00000000    0.00000000
     atom   34 type  2   force =     0.00000000    0.00000000    0.00000000
     atom   35 type  1   force =     0.00000000    0.00000000    0.00000000
     atom   36 type  1   force =     0.00000000    0.00000000    0.00000000
     atom   37 type  1   force =     0.00000000    0.00000000    0.00000000
     atom   38 type  1   force =     0.00000000    0.00000000    0.00000000
     atom   39 type  1   force =     0.00000000    0.00000000    0.00000000
     atom   40 type  1   force =     0.00000000    0.00000000    0.00000000
     atom   41 type  3   force =     0.00000000    0.00000000    0.00000000
     atom   42 type  3   force =     0.00000000    0.00000000    0.00000000
     atom   43 type  3   force =     0.00000000    0.00000000    0.00000000
     atom   44 type  3   force =     0.00000000    0.00000000    0.00000000
     atom   45 type  3   force =     0.00000000    0.00000000    0.00000000
     atom   46 type  3   force =     0.00000000    0.00000000    0.00000000
     atom   47 type  3   force =     0.00000000    0.00000000    0.00000000
     atom   48 type  3   force =     0.00000000    0.00000000    0.00000000
     The SCF correction term to forces
     atom    1 type  1   force =    -0.00000002    0.00000068   -0.00000082
     atom    2 type  1   force =    -0.00000009    0.00000080   -0.00000014
     atom    3 type  1   force =     0.00000027   -0.00000016   -0.00000033
     atom    4 type  1   force =     0.00000003   -0.00000012   -0.00000018
     atom    5 type  2   force =     0.00000055   -0.00000035   -0.00000102
     atom    6 type  2   force =    -0.00000077   -0.00000036   -0.00000132
     atom    7 type  1   force =     0.00000075    0.00000041   -0.00000088
     atom    8 type  1   force =    -0.00000071    0.00000044   -0.00000110
     atom    9 type  2   force =     0.00000054    0.00000031   -0.00000249
     atom   10 type  2   force =    -0.00000037    0.00000032   -0.00000242
     atom   11 type  1   force =     0.00000073   -0.00000035   -0.00000045
     atom   12 type  1   force =    -0.00000072   -0.00000038   -0.00000064
     atom   13 type  1   force =     0.00000029   -0.00000021   -0.00000084
     atom   14 type  1   force =    -0.00000022   -0.00000022   -0.00000062
     atom   15 type  1   force =     0.00000104   -0.00000013   -0.00000054
     atom   16 type  1   force =    -0.00000089   -0.00000014   -0.00000116
     atom   17 type  2   force =     0.00000095   -0.00000015    0.00000017
     atom   18 type  2   force =    -0.00000069   -0.00000016    0.00000017
     atom   19 type  1   force =     0.00000038    0.00000047    0.00000006
     atom   20 type  1   force =    -0.00000055   -0.00000053    0.00000006
     atom   21 type  2   force =     0.00000072   -0.00000029    0.00000017
     atom   22 type  2   force =    -0.00000070   -0.00000030    0.00000017
     atom   23 type  1   force =     0.00000036   -0.00000066    0.00000006
     atom   24 type  1   force =    -0.00000057    0.00000034    0.00000006
     atom   25 type  1   force =     0.00000104   -0.00000013    0.00000066
     atom   26 type  1   force =    -0.00000089   -0.00000014    0.00000128
     atom   27 type  1   force =     0.00000029   -0.00000021    0.00000094
     atom   28 type  1   force =    -0.00000022   -0.00000022    0.00000072
     atom   29 type  2   force =     0.00000055   -0.00000035    0.00000114
     atom   30 type  2   force =    -0.00000077   -0.00000035    0.00000144
     atom   31 type  1   force =     0.00000075    0.00000042    0.00000093
     atom   32 type  1   force =    -0.00000071    0.00000044    0.00000115
     atom   33 type  2   force =     0.00000054    0.00000031    0.00000261
     atom   34 type  2   force =    -0.00000037    0.00000031    0.00000254
     atom   35 type  1   force =     0.00000073   -0.00000035    0.00000048
     atom   36 type  1   force =    -0.00000072   -0.00000038    0.00000068
     atom   37 type  1   force =     0.00000027   -0.00000015    0.00000032
     atom   38 type  1   force =     0.00000003   -0.00000011    0.00000017
     atom   39 type  1   force =    -0.00000002    0.00000068    0.00000079
     atom   40 type  1   force =    -0.00000009    0.00000080    0.00000011
     atom   41 type  3   force =     0.00000001    0.00000005   -0.00000003
     atom   42 type  3   force =     0.00000001    0.00000005    0.00000003
     atom   43 type  3   force =    -0.00000007    0.00000005    0.00000002
     atom   44 type  3   force =    -0.00000007    0.00000005   -0.00000002
     atom   45 type  3   force =     0.00000002    0.00000006   -0.00000008
     atom   46 type  3   force =     0.00000002    0.00000006    0.00000007
     atom   47 type  3   force =    -0.00000000    0.00000010   -0.00000004
     atom   48 type  3   force =    -0.00000000    0.00000010    0.00000003

     Total force =     0.003010     Total SCF correction =     0.000008
     Energy error            =      1.9E-05 Ry
     Gradient error          =      8.0E-04 Ry/Bohr

     number of scf cycles    =  26
     number of bfgs steps    =  25

     energy             old  =   -3437.8093005806 Ry
     energy             new  =   -3437.8093196716 Ry

     CASE: energy            _new < energy            _old

     new trust radius        =       0.0058493861 bohr
     new conv_thr            =            1.0E-11 Ry


ATOMIC_POSITIONS (crystal)
O            -0.0060260314        0.4427328173        0.2684045553
O             0.4939742754        0.4427326477        0.2684045888
O            -0.0025570038        0.0165096095        0.3014680624
O             0.4974431375        0.0165094183        0.3014680322
Ru            0.2477429911        0.0011460675        0.3584454411
Ru            0.7477429957        0.0011462213        0.3584454876
O             0.2505915106        0.3128104808        0.3611477079
O             0.7505907917        0.3128106047        0.3611479844
Ru            0.0000504881        0.5006581385        0.3567416936
Ru            0.5000506278        0.5006579898        0.3567415814
O             0.2505334769        0.6896150316        0.3520295898
O             0.7505326920        0.6896151012        0.3520297808
O            -0.0019100391       -0.0034510928        0.4111995858
O             0.4980899973       -0.0034515492        0.4111996338
O             0.0042467614        0.5104758662        0.4449908100
O             0.5042464731        0.5104758830        0.4449906975
Ru           -0.0009743900        0.0059054300        0.5000010000
Ru            0.4990256527        0.0059052726        0.5000010000
O             0.2480863010        0.1944913699        0.5000010000
O             0.7480861460        0.1944913665        0.5000010000
Ru            0.2538366506        0.5068707927        0.5000010000
Ru            0.7538362207        0.5068707858        0.5000010000
O             0.2484770723        0.8191936081        0.5000010000
O             0.7484771692        0.8191936106        0.5000010000
O             0.0042467614        0.5104758662        0.5550101900
O             0.5042464731        0.5104758830        0.5550103025
O            -0.0019100391       -0.0034510928        0.5888014142
O             0.4980899973       -0.0034515492        0.5888013662
Ru            0.2477429911        0.0011460675        0.6415555589
Ru            0.7477429957        0.0011462213        0.6415555124
O             0.2505915106        0.3128104808        0.6388532921
O             0.7505907917        0.3128106047        0.6388530156
Ru            0.0000504881        0.5006581385        0.6432593064
Ru            0.5000506278        0.5006579898        0.6432594186
O             0.2505334769        0.6896150316        0.6479714102
O             0.7505326920        0.6896151012        0.6479712192
O            -0.0025570038        0.0165096095        0.6985339376
O             0.4974431375        0.0165094183        0.6985339678
O            -0.0060260314        0.4427328173        0.7315964447
O             0.4939742754        0.4427326477        0.7315964112
H             0.1296297510        0.4714156717        0.2505605664
H             0.1296297510        0.4714156717        0.7494394336
H             0.6296316787        0.4714158661        0.2505606630
H             0.6296316787        0.4714158661        0.7494393370
H            -0.0043798968        0.1590736090        0.2782564316
H            -0.0043798968        0.1590736090        0.7217435684
H             0.4956199116        0.1590734999        0.2782563797
H             0.4956199116        0.1590734999        0.7217436203



     Writing config-only to output data dir /storage/home/mgm6007/ixd4/Maria/Strain2_Files/RuO2-110-0-0123/RuO2-110-0-0123.save/
     NEW-OLD atomic charge density approx. for the potential

     Check: negative core charge=   -0.000001

     negative rho (up, down):  1.444E-04 0.000E+00

     add environment contribution to local potential
     Polarization accuracy = 6.2E-12, # of iterations =  40

     total cpu time spent up to now is   204445.9 secs

     per-process dynamical memory:   217.6 Mb

     Self-consistent Calculation

     iteration #  1     ecut=    50.00 Ry     beta= 0.70
     Davidson diagonalization with overlap
     ethr =  1.00E-06,  avg # of iterations =  3.0

     Threshold (ethr) on eigenvalues was too large:
     Diagonalizing with lowered threshold

     Davidson diagonalization with overlap
     ethr =  6.14E-09,  avg # of iterations =  3.0

     negative rho (up, down):  1.685E-04 0.000E+00

     add environment contribution to local potential
     Polarization accuracy = 5.4E-12, # of iterations =  39

     total cpu time spent up to now is   205447.0 secs

     total energy              =   -3437.80933027 Ry
     estimated scf accuracy    <       0.00002457 Ry
     electrostatic embedding   =      -0.02335046 Ry
     cavitation energy         =       0.02100519 Ry
     PV energy                 =      -0.08180507 Ry
     correction to one-el term =     194.42626364 Ry

     iteration #  2     ecut=    50.00 Ry     beta= 0.70
     Davidson diagonalization with overlap
     ethr =  6.68E-09,  avg # of iterations =  1.0

     negative rho (up, down):  1.748E-04 0.000E+00

     add environment contribution to local potential
     Polarization accuracy = 6.2E-12, # of iterations =  40

     total cpu time spent up to now is   206342.4 secs

     total energy              =   -3437.80933134 Ry
     estimated scf accuracy    <       0.00003305 Ry
     electrostatic embedding   =      -0.02327486 Ry
     cavitation energy         =       0.02100700 Ry
     PV energy                 =      -0.08181198 Ry
     correction to one-el term =     194.43685239 Ry

     iteration #  3     ecut=    50.00 Ry     beta= 0.70
     Davidson diagonalization with overlap
     ethr =  6.68E-09,  avg # of iterations =  1.0

     negative rho (up, down):  1.914E-04 0.000E+00

     add environment contribution to local potential
     Polarization accuracy = 5.3E-12, # of iterations =  39

     total cpu time spent up to now is   207185.9 secs

     total energy              =   -3437.80933269 Ry
     estimated scf accuracy    <       0.00000385 Ry
     electrostatic embedding   =      -0.02325754 Ry
     cavitation energy         =       0.02100778 Ry
     PV energy                 =      -0.08181335 Ry
     correction to one-el term =     194.43952713 Ry

     iteration #  4     ecut=    50.00 Ry     beta= 0.70
     Davidson diagonalization with overlap
     ethr =  1.05E-09,  avg # of iterations =  2.0

     negative rho (up, down):  1.919E-04 0.000E+00

     add environment contribution to local potential
     Polarization accuracy = 6.1E-12, # of iterations =  40

     total cpu time spent up to now is   207872.8 secs

     total energy              =   -3437.80933319 Ry
     estimated scf accuracy    <       0.00000151 Ry
     electrostatic embedding   =      -0.02320542 Ry
     cavitation energy         =       0.02100971 Ry
     PV energy                 =      -0.08181783 Ry
     correction to one-el term =     194.44479341 Ry

     iteration #  5     ecut=    50.00 Ry     beta= 0.70
     Davidson diagonalization with overlap
     ethr =  4.11E-10,  avg # of iterations =  1.0

     negative rho (up, down):  1.900E-04 0.000E+00

     add environment contribution to local potential
     Polarization accuracy = 6.0E-12, # of iterations =  40

     total cpu time spent up to now is   208641.0 secs

     total energy              =   -3437.80933332 Ry
     estimated scf accuracy    <       0.00000012 Ry
     electrostatic embedding   =      -0.02319915 Ry
     cavitation energy         =       0.02101001 Ry
     PV energy                 =      -0.08181835 Ry
     correction to one-el term =     194.44487596 Ry

     iteration #  6     ecut=    50.00 Ry     beta= 0.70
     Davidson diagonalization with overlap
     ethr =  3.20E-11,  avg # of iterations =  3.5

     negative rho (up, down):  1.828E-04 0.000E+00

     add environment contribution to local potential
     Polarization accuracy = 5.3E-12, # of iterations =  39

     total cpu time spent up to now is   209662.4 secs

     total energy              =   -3437.80933338 Ry
     estimated scf accuracy    <       0.00000012 Ry
     electrostatic embedding   =      -0.02319381 Ry
     cavitation energy         =       0.02101039 Ry
     PV energy                 =      -0.08181873 Ry
     correction to one-el term =     194.44452067 Ry

     iteration #  7     ecut=    50.00 Ry     beta= 0.70
     Davidson diagonalization with overlap
     ethr =  3.20E-11,  avg # of iterations =  1.5

     negative rho (up, down):  1.699E-04 0.000E+00

     add environment contribution to local potential
