
     Program PWSCF v.7.2 starts on 27Jul2023 at 11:58:12 
        Git branch: heads/qe-7.2
        Last git commit: b4c5e8deeb7d1863e7553a87b45f8d22c21926a5
        Last git commit date: Mon Mar 27 16:12:09 2023 +0000
        Last git commit subject: Merge branch 'merge_fix_hubbard' into 'develop'

     This program is part of the open-source Quantum ESPRESSO suite
     for quantum simulation of materials; please cite
         "P. Giannozzi et al., J. Phys.:Condens. Matter 21 395502 (2009);
         "P. Giannozzi et al., J. Phys.:Condens. Matter 29 465901 (2017);
         "P. Giannozzi et al., J. Chem. Phys. 152 154105 (2020);
          URL http://www.quantum-espresso.org", 
     in publications or presentations arising from this work. More details at
     http://www.quantum-espresso.org/quote

     Parallel version (MPI), running on    20 processors

     MPI processes distributed on     1 nodes
     104635 MiB available memory on the printing compute node when the environment starts
 
     Reading input from RuO2-110-0-0234.in

     Current dimensions of program PWSCF are:
     Max number of different atomic species (ntypx) = 10
     Max number of k-points (npk) =  40000
     Max angular momentum in pseudopotentials (lmaxx) =  4
 
     Reading input from environ.in:
     * Environ restarting
     * setting up water environment
     * using electronic solvent mode
     * setting boundary derivatives method to SCCS default
     

     File /storage/home/mgm6007/ixd4/Maria/Strain2_Files/RuO2-110-0-0234/RuO2-110-0-0234.update deleted, as requested

     File /storage/home/mgm6007/ixd4/Maria/Strain2_Files/RuO2-110-0-0234/RuO2-110-0-0234.bfgs deleted, as requested
     file O.pbe-n-kjpaw_psl.0.1.UPF: wavefunction(s)  2P renormalized
     Message from routine setup:
     using ibrav=0 with symmetry is DISCOURAGED, use correct ibrav instead
 
     R & G space division:  proc/nbgrp/npool/nimage =      20
     Subspace diagonalization in iterative solution of the eigenvalue problem:
     one sub-group per band group will be used
     scalapack distributed-memory algorithm (size of sub-group:  2*  2 procs)

 
     Parallelization info
     --------------------
     sticks:   dense  smooth     PW     G-vecs:    dense   smooth      PW
     Min         279     111     29                55537    14039    1893
     Max         280     112     30                55546    14052    1904
     Sum        5595    2237    595              1110843   280917   37967
 
     Using Slab Decomposition
 


     bravais-lattice index     =            0
     lattice parameter (alat)  =      12.2467  a.u.
     unit-cell volume          =    5883.2137 (a.u.)^3
     number of atoms/cell      =           48
     number of atomic types    =            3
     number of electrons       =       368.00
     number of Kohn-Sham states=          221
     kinetic-energy cutoff     =      50.0000  Ry
     charge density cutoff     =     500.0000  Ry
     scf convergence threshold =      1.0E-09
     mixing beta               =       0.7000
     number of iterations used =            8  local-TF  mixing
     energy convergence thresh.=      1.0E-04
     force convergence thresh. =      1.0E-04
     Exchange-correlation= PBE
                           (   1   4   3   4   0   0   0)
     nstep                     =          200


     ================================================================================
 
                                  Environ Setup Summary

     ================================================================================
 
     Please cite

          O. Andreussi, I. Dabo and N. Marzari, J. Chem. Phys. 136, 064102 (2012)

     in publications or presentations arising from this work.

     ================================================================================
 
     Parameters
     ==========

     compensation onset threshold      =               0.1000E+00
     static permittivity               =                    78.30
     surface tension in input (dyn/cm) =                    47.90
     surface tension in internal units =               0.6153E-04
     external pressure in input (GPa)  =                    -0.36
     external pressure in inter. units =              -0.2447E-04

     Solvent Boundary
     ================

     solvent mode                      =               electronic
     derivatives method                =                    chain
     numerical core for derivatives    =                      fft
     switching function adopted        =                     SCCS
     density limit for vacuum region   =               0.5000E-02
     density limit for bulk solvent    =               0.1000E-03

     Electrostatic Setup
     ===================

     electrostatic problem to solve    =              generalized
     numerical solver adopted          =                       cg
     type of auxiliary density adopted =                     none
     numerical core for poisson        =                      fft
     type of pbc corrections           =                parabolic
     numerical core for corrections    =                      1da

     ================================================================================
 

     celldm(1)=  12.246684  celldm(2)=   0.000000  celldm(3)=   0.000000
     celldm(4)=   0.000000  celldm(5)=   0.000000  celldm(6)=   0.000000

     crystal axes: (cart. coord. in units of alat)
               a(1) = (   1.000000   0.000000   0.000000 )  
               a(2) = (   0.000000   0.937861   0.000000 )  
               a(3) = (   0.000000   0.000000   3.415235 )  

     reciprocal axes: (cart. coord. in units 2 pi/alat)
               b(1) = (  1.000000  0.000000  0.000000 )  
               b(2) = (  0.000000  1.066256  0.000000 )  
               b(3) = (  0.000000  0.000000  0.292806 )  


     PseudoPot. # 1 for O  read from file:
     /gpfs/group/ixd4/default/Simon/pseudopotentials/materialscloud/SSSP_1.3.0_PBE_efficiency/O.pbe-n-kjpaw_psl.0.1.UPF
     MD5 check sum: 0234752ac141de4415c5fc33072bef88
     Pseudo is Projector augmented-wave + core cor, Zval =  6.0
     Generated using "atomic" code by A. Dal Corso  v.5.0.99 svn rev. 10869
     Shape of augmentation charge: BESSEL
     Using radial grid of 1095 points,  4 beta functions with: 
                l(1) =   0
                l(2) =   0
                l(3) =   1
                l(4) =   1
     Q(r) pseudized with 0 coefficients 


     PseudoPot. # 2 for Ru read from file:
     /gpfs/group/ixd4/default/Simon/pseudopotentials/materialscloud/SSSP_1.3.0_PBE_efficiency/Ru_ONCV_PBE-1.0.oncvpsp.upf
     MD5 check sum: be037bb81c227cfb9b1461a9f099f4bd
     Pseudo is Norm-conserving, Zval = 16.0
     Generated using ONCVPSP code by D. R. Hamann
     Using radial grid of 1458 points,  6 beta functions with: 
                l(1) =   0
                l(2) =   0
                l(3) =   1
                l(4) =   1
                l(5) =   2
                l(6) =   2

     PseudoPot. # 3 for H  read from file:
     /gpfs/group/ixd4/default/Simon/pseudopotentials/materialscloud/SSSP_1.3.0_PBE_efficiency/H.pbe-rrkjus_psl.1.0.0.UPF
     MD5 check sum: f52b6d4d1c606e5624b1dc7b2218f220
     Pseudo is Ultrasoft, Zval =  1.0
     Generated using "atomic" code by A. Dal Corso  v.5.1
     Using radial grid of  929 points,  2 beta functions with: 
                l(1) =   0
                l(2) =   0
     Q(r) pseudized with 0 coefficients 


     atomic species   valence    mass     pseudopotential
        O              6.00    15.99940     O ( 1.00)
        Ru            16.00   101.07000     Ru( 1.00)
        H              1.00     1.00794     H ( 1.00)

      2 Sym. Ops. (no inversion) found



   Cartesian axes

     site n.     atom                  positions (alat units)
         1           O   tau(   1) = (   0.0171195   0.3921921   0.9050357  )
         2           O   tau(   2) = (   0.4778014   0.4204876   0.9301511  )
         3           O   tau(   3) = (  -0.0020895   0.0101707   1.0202438  )
         4           O   tau(   4) = (   0.4975450   0.0061879   1.0251871  )
         5           Ru  tau(   5) = (   0.2506050  -0.0059807   1.2258435  )
         6           Ru  tau(   6) = (   0.7454833  -0.0057469   1.2249046  )
         7           O   tau(   7) = (   0.2448332   0.2837658   1.2434990  )
         8           O   tau(   8) = (   0.7504710   0.2853404   1.2367491  )
         9           Ru  tau(   9) = (  -0.0014316   0.4622499   1.2332079  )
        10           Ru  tau(  10) = (   0.4983901   0.4625119   1.2008037  )
        11           O   tau(  11) = (   0.2423331   0.6429364   1.2053143  )
        12           O   tau(  12) = (   0.7524838   0.6415508   1.2023469  )
        13           O   tau(  13) = (  -0.0029411  -0.0095677   1.4043417  )
        14           O   tau(  14) = (   0.4982100  -0.0079041   1.4051934  )
        15           O   tau(  15) = (  -0.0009203   0.4784681   1.5273187  )
        16           O   tau(  16) = (   0.4981178   0.4774909   1.5111334  )
        17           Ru  tau(  17) = (  -0.0032228   0.0056094   1.7076210  )
        18           Ru  tau(  18) = (   0.4969378   0.0049679   1.7076210  )
        19           O   tau(  19) = (   0.2469385   0.1818814   1.7076210  )
        20           O   tau(  20) = (   0.7449149   0.1825490   1.7076210  )
        21           Ru  tau(  21) = (   0.2549082   0.4754773   1.7076210  )
        22           Ru  tau(  22) = (   0.7463494   0.4752976   1.7076210  )
        23           O   tau(  23) = (   0.2470591   0.7683181   1.7076210  )
        24           O   tau(  24) = (   0.7452499   0.7675241   1.7076210  )
        25           O   tau(  25) = (  -0.0009203   0.4784681   1.8879200  )
        26           O   tau(  26) = (   0.4981178   0.4774909   1.9041052  )
        27           O   tau(  27) = (  -0.0029411  -0.0095677   2.0108969  )
        28           O   tau(  28) = (   0.4982100  -0.0079041   2.0100453  )
        29           Ru  tau(  29) = (   0.2506050  -0.0059807   2.1893951  )
        30           Ru  tau(  30) = (   0.7454833  -0.0057469   2.1903341  )
        31           O   tau(  31) = (   0.2448332   0.2837658   2.1717396  )
        32           O   tau(  32) = (   0.7504710   0.2853404   2.1784895  )
        33           Ru  tau(  33) = (  -0.0014316   0.4622499   2.1820307  )
        34           Ru  tau(  34) = (   0.4983901   0.4625119   2.2144350  )
        35           O   tau(  35) = (   0.2423331   0.6429364   2.2099244  )
        36           O   tau(  36) = (   0.7524838   0.6415508   2.2128918  )
        37           O   tau(  37) = (  -0.0020895   0.0101707   2.3949983  )
        38           O   tau(  38) = (   0.4975450   0.0061879   2.3900549  )
        39           O   tau(  39) = (   0.0171195   0.3921921   2.5102029  )
        40           O   tau(  40) = (   0.4778014   0.4204876   2.4850876  )
        41           H   tau(  41) = (   0.1633195   0.4136801   0.8707951  )
        42           H   tau(  42) = (   0.1633195   0.4136801   2.5444401  )
        43           H   tau(  43) = (   0.0059126   0.2357004   0.9316269  )
        44           H   tau(  44) = (   0.0059126   0.2357004   2.4836083  )
        45           H   tau(  45) = (   0.4957613   0.1353089   0.9428789  )
        46           H   tau(  46) = (   0.4957613   0.1353089   2.4723564  )
        47           H   tau(  47) = (  -0.0029366   0.8603517   0.8982823  )
        48           H   tau(  48) = (  -0.0029366   0.8603517   2.5169529  )

     number of k points=     2  Marzari-Vanderbilt smearing, width (Ry)=  0.0300
                       cart. coord. in units 2pi/alat
        k(    1) = (   0.2500000   0.2665641   0.0000000), wk =   1.0000000
        k(    2) = (  -0.2500000   0.2665641   0.0000000), wk =   1.0000000

     Dense  grid:  1110843 G-vectors     FFT dimensions: (  90,  81, 300)

     Smooth grid:   280917 G-vectors     FFT dimensions: (  60,  54, 192)

     Estimated max dynamical RAM per process >     182.22 MB

     Estimated total dynamical RAM >       3.56 GB

     Check: negative core charge=   -0.000001

     Initial potential from superposition of free atoms

     starting charge     367.9933, renormalised to     368.0000

     add environment contribution to local potential
     Polarization accuracy = 5.3E-12, # of iterations =  25

     negative rho (up, down):  3.034E-05 0.000E+00
     Starting wfcs are  240 randomized atomic wfcs
     Checking if some PAW data can be deallocated... 

     total cpu time spent up to now is      584.9 secs

     per-process dynamical memory:   151.5 Mb

     Self-consistent Calculation

     iteration #  1     ecut=    50.00 Ry     beta= 0.70
     Davidson diagonalization with overlap
     ethr =  1.00E-02,  avg # of iterations =  3.0

     negative rho (up, down):  2.565E-08 0.000E+00

     total cpu time spent up to now is      737.0 secs

     total energy              =   -3435.58005504 Ry
     estimated scf accuracy    <       9.03752570 Ry
     electrostatic embedding   =      -0.00175868 Ry
     cavitation energy         =       0.01951626 Ry
     PV energy                 =      -0.08554194 Ry
     correction to one-el term =     221.50055501 Ry

     iteration #  2     ecut=    50.00 Ry     beta= 0.70
     Davidson diagonalization with overlap
     ethr =  2.46E-03,  avg # of iterations =  2.0

     total cpu time spent up to now is      887.3 secs

     total energy              =   -3437.53077427 Ry
     estimated scf accuracy    <       2.08751145 Ry
     electrostatic embedding   =      -0.00278448 Ry
     cavitation energy         =       0.01943202 Ry
     PV energy                 =      -0.08636664 Ry
     correction to one-el term =     221.50369603 Ry

     iteration #  3     ecut=    50.00 Ry     beta= 0.70
     Davidson diagonalization with overlap
     ethr =  5.67E-04,  avg # of iterations =  3.0

     total cpu time spent up to now is     1035.3 secs

     total energy              =   -3437.70908845 Ry
     estimated scf accuracy    <       0.40697530 Ry
     electrostatic embedding   =      -0.00319675 Ry
     cavitation energy         =       0.01953486 Ry
     PV energy                 =      -0.08649598 Ry
     correction to one-el term =     221.50472312 Ry

     iteration #  4     ecut=    50.00 Ry     beta= 0.70
     Davidson diagonalization with overlap
     ethr =  1.11E-04,  avg # of iterations =  5.0

     total cpu time spent up to now is     1184.1 secs

     total energy              =   -3437.75060767 Ry
     estimated scf accuracy    <       0.73313072 Ry
     electrostatic embedding   =      -0.00333930 Ry
     cavitation energy         =       0.01977552 Ry
     PV energy                 =      -0.08598196 Ry
     correction to one-el term =     221.50471243 Ry

     iteration #  5     ecut=    50.00 Ry     beta= 0.70
     Davidson diagonalization with overlap
     ethr =  1.11E-04,  avg # of iterations =  1.0

     total cpu time spent up to now is     1332.9 secs

     total energy              =   -3437.73751595 Ry
     estimated scf accuracy    <       0.26572330 Ry
     electrostatic embedding   =      -0.00348566 Ry
     cavitation energy         =       0.02004139 Ry
     PV energy                 =      -0.08554170 Ry
     correction to one-el term =     221.50479773 Ry

     iteration #  6     ecut=    50.00 Ry     beta= 0.70
     Davidson diagonalization with overlap
     ethr =  7.22E-05,  avg # of iterations =  2.0

     total cpu time spent up to now is     1488.0 secs

     total energy              =   -3437.73123045 Ry
     estimated scf accuracy    <       0.14015475 Ry
     electrostatic embedding   =      -0.00358166 Ry
     cavitation energy         =       0.02088142 Ry
     PV energy                 =      -0.08399553 Ry
     correction to one-el term =     221.50427116 Ry

     iteration #  7     ecut=    50.00 Ry     beta= 0.70
     Davidson diagonalization with overlap
     ethr =  3.81E-05,  avg # of iterations =  5.0

     add environment contribution to local potential
     Polarization accuracy = 4.1E-12, # of iterations =  47

     total cpu time spent up to now is     1643.9 secs

     total energy              =   -3437.72301580 Ry
     estimated scf accuracy    <       0.09988624 Ry
     electrostatic embedding   =      -0.00344307 Ry
     cavitation energy         =       0.02139921 Ry
     PV energy                 =      -0.08287678 Ry
     correction to one-el term =     221.50342567 Ry

     iteration #  8     ecut=    50.00 Ry     beta= 0.70
     Davidson diagonalization with overlap
     ethr =  2.71E-05,  avg # of iterations =  9.5

     total cpu time spent up to now is     1789.4 secs

     total energy              =   -3437.75588148 Ry
     estimated scf accuracy    <       0.13361329 Ry
     electrostatic embedding   =      -0.05102614 Ry
     cavitation energy         =       0.02206608 Ry
     PV energy                 =      -0.08154137 Ry
     correction to one-el term =     178.54934746 Ry

     iteration #  9     ecut=    50.00 Ry     beta= 0.70
     Davidson diagonalization with overlap
     ethr =  2.71E-05,  avg # of iterations =  1.0

     negative rho (up, down):  2.351E-05 0.000E+00

     add environment contribution to local potential
     Polarization accuracy = 8.1E-12, # of iterations =  51

     total cpu time spent up to now is     1934.0 secs

     total energy              =   -3437.75162949 Ry
     estimated scf accuracy    <       0.02704919 Ry
     electrostatic embedding   =      -0.05156804 Ry
     cavitation energy         =       0.02220506 Ry
     PV energy                 =      -0.08115989 Ry
     correction to one-el term =     178.55190194 Ry

     iteration # 10     ecut=    50.00 Ry     beta= 0.70
     Davidson diagonalization with overlap
     ethr =  7.35E-06,  avg # of iterations =  4.5

     negative rho (up, down):  4.984E-05 0.000E+00

     add environment contribution to local potential
     Polarization accuracy = 8.5E-12, # of iterations =  50

     total cpu time spent up to now is     2080.9 secs

     total energy              =   -3437.75792805 Ry
     estimated scf accuracy    <       0.01132465 Ry
     electrostatic embedding   =      -0.05697643 Ry
     cavitation energy         =       0.02209736 Ry
     PV energy                 =      -0.08105286 Ry
     correction to one-el term =     177.90699590 Ry

     iteration # 11     ecut=    50.00 Ry     beta= 0.70
     Davidson diagonalization with overlap
     ethr =  3.08E-06,  avg # of iterations =  5.0

     negative rho (up, down):  7.401E-04 0.000E+00

     add environment contribution to local potential
     Polarization accuracy = 4.8E-12, # of iterations =  50

     total cpu time spent up to now is     2242.5 secs

     total energy              =   -3437.75953613 Ry
     estimated scf accuracy    <       0.00774669 Ry
     electrostatic embedding   =      -0.05891604 Ry
     cavitation energy         =       0.02183141 Ry
     PV energy                 =      -0.08119070 Ry
     correction to one-el term =     179.27306680 Ry

     iteration # 12     ecut=    50.00 Ry     beta= 0.70
     Davidson diagonalization with overlap
     ethr =  2.11E-06,  avg # of iterations =  5.0

     negative rho (up, down):  1.530E-03 0.000E+00

     add environment contribution to local potential
     Polarization accuracy = 2.7E-12, # of iterations =  49

     total cpu time spent up to now is     2392.4 secs

     total energy              =   -3437.76094575 Ry
     estimated scf accuracy    <       0.00496562 Ry
     electrostatic embedding   =      -0.06152530 Ry
     cavitation energy         =       0.02167691 Ry
     PV energy                 =      -0.08125468 Ry
     correction to one-el term =     180.20393513 Ry

     iteration # 13     ecut=    50.00 Ry     beta= 0.70
     Davidson diagonalization with overlap
     ethr =  1.35E-06,  avg # of iterations =  2.0

     negative rho (up, down):  5.349E-05 0.000E+00

     add environment contribution to local potential
     Polarization accuracy = 6.4E-12, # of iterations =  46

     total cpu time spent up to now is     2536.9 secs

     total energy              =   -3437.76171344 Ry
     estimated scf accuracy    <       0.00354802 Ry
     electrostatic embedding   =      -0.06334092 Ry
     cavitation energy         =       0.02166331 Ry
     PV energy                 =      -0.08124028 Ry
     correction to one-el term =     180.48184775 Ry

     iteration # 14     ecut=    50.00 Ry     beta= 0.70
     Davidson diagonalization with overlap
     ethr =  9.64E-07,  avg # of iterations =  7.0

     add environment contribution to local potential
     Polarization accuracy = 5.8E-12, # of iterations =  45

     total cpu time spent up to now is     2689.2 secs

     total energy              =   -3437.76234035 Ry
     estimated scf accuracy    <       0.00277281 Ry
     electrostatic embedding   =      -0.06184531 Ry
     cavitation energy         =       0.02148593 Ry
     PV energy                 =      -0.08149619 Ry
     correction to one-el term =     182.03463092 Ry

     iteration # 15     ecut=    50.00 Ry     beta= 0.70
     Davidson diagonalization with overlap
     ethr =  7.53E-07,  avg # of iterations =  6.0

     negative rho (up, down):  6.153E-08 0.000E+00

     add environment contribution to local potential
     Polarization accuracy = 7.1E-12, # of iterations =  44

     total cpu time spent up to now is     2837.5 secs

     total energy              =   -3437.76267048 Ry
     estimated scf accuracy    <       0.00125348 Ry
     electrostatic embedding   =      -0.06104844 Ry
     cavitation energy         =       0.02144436 Ry
     PV energy                 =      -0.08159519 Ry
     correction to one-el term =     182.73366020 Ry

     iteration # 16     ecut=    50.00 Ry     beta= 0.70
     Davidson diagonalization with overlap
     ethr =  3.41E-07,  avg # of iterations =  7.0

     negative rho (up, down):  2.713E-06 0.000E+00

     add environment contribution to local potential
     Polarization accuracy = 4.4E-12, # of iterations =  44

     total cpu time spent up to now is     2979.4 secs

     total energy              =   -3437.76303917 Ry
     estimated scf accuracy    <       0.00048694 Ry
     electrostatic embedding   =      -0.05869246 Ry
     cavitation energy         =       0.02136739 Ry
     PV energy                 =      -0.08177701 Ry
     correction to one-el term =     184.17387638 Ry

     iteration # 17     ecut=    50.00 Ry     beta= 0.70
     Davidson diagonalization with overlap
     ethr =  1.32E-07,  avg # of iterations =  7.0

     negative rho (up, down):  1.657E-03 0.000E+00

     add environment contribution to local potential
     Polarization accuracy = 8.1E-12, # of iterations =  44

     total cpu time spent up to now is     3137.1 secs

     total energy              =   -3437.76311806 Ry
     estimated scf accuracy    <       0.00021827 Ry
     electrostatic embedding   =      -0.05772836 Ry
     cavitation energy         =       0.02134832 Ry
     PV energy                 =      -0.08182176 Ry
     correction to one-el term =     184.56141582 Ry

     iteration # 18     ecut=    50.00 Ry     beta= 0.70
     Davidson diagonalization with overlap
     ethr =  5.93E-08,  avg # of iterations =  2.0

     negative rho (up, down):  2.329E-03 0.000E+00

     add environment contribution to local potential
     Polarization accuracy = 9.4E-12, # of iterations =  46

     total cpu time spent up to now is     3277.0 secs

     total energy              =   -3437.76318658 Ry
     estimated scf accuracy    <       0.00007399 Ry
     electrostatic embedding   =      -0.05659260 Ry
     cavitation energy         =       0.02136923 Ry
     PV energy                 =      -0.08178887 Ry
     correction to one-el term =     184.83878605 Ry

     iteration # 19     ecut=    50.00 Ry     beta= 0.70
     Davidson diagonalization with overlap
     ethr =  2.01E-08,  avg # of iterations =  5.0

     negative rho (up, down):  7.178E-04 0.000E+00

     add environment contribution to local potential
     Polarization accuracy = 3.5E-12, # of iterations =  47

     total cpu time spent up to now is     3428.9 secs

     total energy              =   -3437.76319017 Ry
     estimated scf accuracy    <       0.00002339 Ry
     electrostatic embedding   =      -0.05578651 Ry
     cavitation energy         =       0.02138594 Ry
     PV energy                 =      -0.08174015 Ry
     correction to one-el term =     184.97211559 Ry

     iteration # 20     ecut=    50.00 Ry     beta= 0.70
     Davidson diagonalization with overlap
     ethr =  6.36E-09,  avg # of iterations =  6.0

     negative rho (up, down):  3.124E-04 0.000E+00

     add environment contribution to local potential
     Polarization accuracy = 4.0E-12, # of iterations =  46

     total cpu time spent up to now is     3564.4 secs

     total energy              =   -3437.76319321 Ry
     estimated scf accuracy    <       0.00001377 Ry
     electrostatic embedding   =      -0.05570892 Ry
     cavitation energy         =       0.02138861 Ry
     PV energy                 =      -0.08171490 Ry
     correction to one-el term =     184.89197585 Ry

     iteration # 21     ecut=    50.00 Ry     beta= 0.70
     Davidson diagonalization with overlap
     ethr =  3.74E-09,  avg # of iterations =  2.0

     negative rho (up, down):  4.805E-04 0.000E+00

     add environment contribution to local potential
     Polarization accuracy = 3.9E-12, # of iterations =  47

     total cpu time spent up to now is     3708.0 secs

     total energy              =   -3437.76319558 Ry
     estimated scf accuracy    <       0.00000837 Ry
     electrostatic embedding   =      -0.05558989 Ry
     cavitation energy         =       0.02138783 Ry
     PV energy                 =      -0.08170986 Ry
     correction to one-el term =     184.87503520 Ry

     iteration # 22     ecut=    50.00 Ry     beta= 0.70
     Davidson diagonalization with overlap
     ethr =  2.28E-09,  avg # of iterations =  2.0

     negative rho (up, down):  4.755E-04 0.000E+00

     add environment contribution to local potential
     Polarization accuracy = 5.0E-12, # of iterations =  46

     total cpu time spent up to now is     3839.8 secs

     total energy              =   -3437.76319672 Ry
     estimated scf accuracy    <       0.00000208 Ry
     electrostatic embedding   =      -0.05550100 Ry
     cavitation energy         =       0.02138366 Ry
     PV energy                 =      -0.08171043 Ry
     correction to one-el term =     184.89509528 Ry

     iteration # 23     ecut=    50.00 Ry     beta= 0.70
     Davidson diagonalization with overlap
     ethr =  5.66E-10,  avg # of iterations =  2.0

     negative rho (up, down):  3.251E-04 0.000E+00

     add environment contribution to local potential
     Polarization accuracy = 3.7E-12, # of iterations =  47

     total cpu time spent up to now is     3973.9 secs

     total energy              =   -3437.76319765 Ry
     estimated scf accuracy    <       0.00000164 Ry
     electrostatic embedding   =      -0.05539253 Ry
     cavitation energy         =       0.02137908 Ry
     PV energy                 =      -0.08171267 Ry
     correction to one-el term =     184.90078826 Ry

     iteration # 24     ecut=    50.00 Ry     beta= 0.70
     Davidson diagonalization with overlap
     ethr =  4.45E-10,  avg # of iterations =  1.0

     negative rho (up, down):  3.673E-04 0.000E+00

     add environment contribution to local potential
     Polarization accuracy = 3.6E-12, # of iterations =  47

     total cpu time spent up to now is     4121.3 secs

     total energy              =   -3437.76319789 Ry
     estimated scf accuracy    <       0.00000091 Ry
     electrostatic embedding   =      -0.05541336 Ry
     cavitation energy         =       0.02137879 Ry
     PV energy                 =      -0.08171580 Ry
     correction to one-el term =     184.88655220 Ry

     iteration # 25     ecut=    50.00 Ry     beta= 0.70
     Davidson diagonalization with overlap
     ethr =  2.47E-10,  avg # of iterations =  2.0

     negative rho (up, down):  3.189E-04 0.000E+00

     add environment contribution to local potential
     Polarization accuracy = 3.6E-12, # of iterations =  47

     total cpu time spent up to now is     4266.8 secs

     total energy              =   -3437.76319852 Ry
     estimated scf accuracy    <       0.00000048 Ry
     electrostatic embedding   =      -0.05531042 Ry
     cavitation energy         =       0.02137699 Ry
     PV energy                 =      -0.08171868 Ry
     correction to one-el term =     184.89832741 Ry

     iteration # 26     ecut=    50.00 Ry     beta= 0.70
     Davidson diagonalization with overlap
     ethr =  1.31E-10,  avg # of iterations =  2.0

     negative rho (up, down):  2.205E-04 0.000E+00

     add environment contribution to local potential
     Polarization accuracy = 3.6E-12, # of iterations =  47

     total cpu time spent up to now is     4417.4 secs

     total energy              =   -3437.76319895 Ry
     estimated scf accuracy    <       0.00000055 Ry
     electrostatic embedding   =      -0.05520973 Ry
     cavitation energy         =       0.02137738 Ry
     PV energy                 =      -0.08171928 Ry
     correction to one-el term =     184.90483977 Ry

     iteration # 27     ecut=    50.00 Ry     beta= 0.70
     Davidson diagonalization with overlap
     ethr =  1.31E-10,  avg # of iterations =  2.0

     negative rho (up, down):  1.896E-04 0.000E+00

     add environment contribution to local potential
     Polarization accuracy = 3.6E-12, # of iterations =  47

     total cpu time spent up to now is     4546.1 secs

     total energy              =   -3437.76319912 Ry
     estimated scf accuracy    <       0.00000041 Ry
     electrostatic embedding   =      -0.05517597 Ry
     cavitation energy         =       0.02137807 Ry
     PV energy                 =      -0.08171842 Ry
     correction to one-el term =     184.90106493 Ry

     iteration # 28     ecut=    50.00 Ry     beta= 0.70
     Davidson diagonalization with overlap
     ethr =  1.11E-10,  avg # of iterations =  1.0

     negative rho (up, down):  1.487E-04 0.000E+00

     add environment contribution to local potential
     Polarization accuracy = 3.6E-12, # of iterations =  47

     total cpu time spent up to now is     4704.3 secs

     total energy              =   -3437.76319928 Ry
     estimated scf accuracy    <       0.00000010 Ry
     electrostatic embedding   =      -0.05516750 Ry
     cavitation energy         =       0.02137811 Ry
     PV energy                 =      -0.08171908 Ry
     correction to one-el term =     184.89993472 Ry

     iteration # 29     ecut=    50.00 Ry     beta= 0.70
     Davidson diagonalization with overlap
     ethr =  2.64E-11,  avg # of iterations =  2.0

     negative rho (up, down):  1.314E-04 0.000E+00

     add environment contribution to local potential
     Polarization accuracy = 3.9E-12, # of iterations =  46

     total cpu time spent up to now is     4850.7 secs

     total energy              =   -3437.76319956 Ry
     estimated scf accuracy    <       0.00000008 Ry
     electrostatic embedding   =      -0.05514326 Ry
     cavitation energy         =       0.02137893 Ry
     PV energy                 =      -0.08171820 Ry
     correction to one-el term =     184.89980281 Ry

     iteration # 30     ecut=    50.00 Ry     beta= 0.70
     Davidson diagonalization with overlap
     ethr =  2.05E-11,  avg # of iterations =  2.0

     negative rho (up, down):  1.354E-04 0.000E+00

     add environment contribution to local potential
     Polarization accuracy = 3.7E-12, # of iterations =  47

     total cpu time spent up to now is     5001.5 secs

     total energy              =   -3437.76319983 Ry
     estimated scf accuracy    <       0.00000006 Ry
     electrostatic embedding   =      -0.05512653 Ry
     cavitation energy         =       0.02137923 Ry
     PV energy                 =      -0.08171760 Ry
     correction to one-el term =     184.90012761 Ry

     iteration # 31     ecut=    50.00 Ry     beta= 0.70
     Davidson diagonalization with overlap
     ethr =  1.69E-11,  avg # of iterations =  1.0

     negative rho (up, down):  1.269E-04 0.000E+00

     add environment contribution to local potential
     Polarization accuracy = 3.7E-12, # of iterations =  47

     total cpu time spent up to now is     5136.3 secs

     total energy              =   -3437.76320002 Ry
     estimated scf accuracy    <       0.00000006 Ry
     electrostatic embedding   =      -0.05512875 Ry
     cavitation energy         =       0.02137906 Ry
     PV energy                 =      -0.08171770 Ry
     correction to one-el term =     184.90003778 Ry

     iteration # 32     ecut=    50.00 Ry     beta= 0.70
     Davidson diagonalization with overlap
     ethr =  1.66E-11,  avg # of iterations =  2.0

     negative rho (up, down):  1.272E-04 0.000E+00

     add environment contribution to local potential
     Polarization accuracy = 3.7E-12, # of iterations =  47

     total cpu time spent up to now is     5265.3 secs

     total energy              =   -3437.76320043 Ry
     estimated scf accuracy    <       0.00000005 Ry
     electrostatic embedding   =      -0.05512399 Ry
     cavitation energy         =       0.02137938 Ry
     PV energy                 =      -0.08171719 Ry
     correction to one-el term =     184.89990679 Ry

     iteration # 33     ecut=    50.00 Ry     beta= 0.70
     Davidson diagonalization with overlap
     ethr =  1.45E-11,  avg # of iterations =  1.0

     negative rho (up, down):  1.416E-04 0.000E+00

     add environment contribution to local potential
     Polarization accuracy = 3.7E-12, # of iterations =  47

     total cpu time spent up to now is     5403.8 secs

     total energy              =   -3437.76320110 Ry
     estimated scf accuracy    <       0.00000005 Ry
     electrostatic embedding   =      -0.05512130 Ry
     cavitation energy         =       0.02137938 Ry
     PV energy                 =      -0.08171708 Ry
     correction to one-el term =     184.89998041 Ry

     iteration # 34     ecut=    50.00 Ry     beta= 0.70
     Davidson diagonalization with overlap
     ethr =  1.33E-11,  avg # of iterations =  2.0

     negative rho (up, down):  1.398E-04 0.000E+00

     add environment contribution to local potential
     Polarization accuracy = 3.6E-12, # of iterations =  47

     total cpu time spent up to now is     5539.2 secs

     total energy              =   -3437.76320324 Ry
     estimated scf accuracy    <       0.00000005 Ry
     electrostatic embedding   =      -0.05512600 Ry
     cavitation energy         =       0.02137918 Ry
     PV energy                 =      -0.08171729 Ry
     correction to one-el term =     184.90009957 Ry

     iteration # 35     ecut=    50.00 Ry     beta= 0.70
     Davidson diagonalization with overlap
     ethr =  1.26E-11,  avg # of iterations =  2.0

     negative rho (up, down):  1.547E-04 0.000E+00

     add environment contribution to local potential
     Polarization accuracy = 3.5E-12, # of iterations =  47

     total cpu time spent up to now is     5682.6 secs

     total energy              =   -3437.76320444 Ry
     estimated scf accuracy    <       0.00000004 Ry
     electrostatic embedding   =      -0.05512552 Ry
     cavitation energy         =       0.02137928 Ry
     PV energy                 =      -0.08171722 Ry
     correction to one-el term =     184.90011907 Ry

     iteration # 36     ecut=    50.00 Ry     beta= 0.70
     Davidson diagonalization with overlap
     ethr =  1.04E-11,  avg # of iterations =  6.0

     negative rho (up, down):  1.624E-04 0.000E+00

     add environment contribution to local potential
     Polarization accuracy = 3.6E-12, # of iterations =  46

     total cpu time spent up to now is     5837.9 secs

     total energy              =   -3437.76321022 Ry
     estimated scf accuracy    <       0.00000003 Ry
     electrostatic embedding   =      -0.05513294 Ry
     cavitation energy         =       0.02137909 Ry
     PV energy                 =      -0.08171773 Ry
     correction to one-el term =     184.90034382 Ry

     iteration # 37     ecut=    50.00 Ry     beta= 0.70
     Davidson diagonalization with overlap
     ethr =  8.26E-12,  avg # of iterations =  2.0

     negative rho (up, down):  1.527E-04 0.000E+00

     add environment contribution to local potential
     Polarization accuracy = 2.8E-12, # of iterations =  47

     total cpu time spent up to now is     5995.1 secs

     total energy              =   -3437.76321339 Ry
     estimated scf accuracy    <       0.00000002 Ry
     electrostatic embedding   =      -0.05514106 Ry
     cavitation energy         =       0.02137892 Ry
     PV energy                 =      -0.08171818 Ry
     correction to one-el term =     184.90054257 Ry

     iteration # 38     ecut=    50.00 Ry     beta= 0.70
     Davidson diagonalization with overlap
     ethr =  5.40E-12,  avg # of iterations =  5.0

     negative rho (up, down):  1.514E-04 0.000E+00

     add environment contribution to local potential
     Polarization accuracy = 2.2E-12, # of iterations =  46

     total cpu time spent up to now is     6137.3 secs

     total energy              =   -3437.76321729 Ry
     estimated scf accuracy    <       0.00000001 Ry
     electrostatic embedding   =      -0.05513589 Ry
     cavitation energy         =       0.02137907 Ry
     PV energy                 =      -0.08171776 Ry
     correction to one-el term =     184.90044869 Ry

     iteration # 39     ecut=    50.00 Ry     beta= 0.70
     Davidson diagonalization with overlap
     ethr =  2.84E-12,  avg # of iterations =  2.5

     negative rho (up, down):  1.435E-04 0.000E+00

     add environment contribution to local potential
     Polarization accuracy = 6.3E-12, # of iterations =  46

     total cpu time spent up to now is     6270.7 secs

     total energy              =   -3437.76322017 Ry
     estimated scf accuracy    <          3.2E-09 Ry
     electrostatic embedding   =      -0.05513877 Ry
     cavitation energy         =       0.02137904 Ry
     PV energy                 =      -0.08171781 Ry
     correction to one-el term =     184.90032438 Ry

     iteration # 40     ecut=    50.00 Ry     beta= 0.70
     Davidson diagonalization with overlap
     ethr =  8.64E-13,  avg # of iterations =  5.5

     negative rho (up, down):  1.373E-04 0.000E+00

     add environment contribution to local potential
     Polarization accuracy = 6.8E-12, # of iterations =  45

     total cpu time spent up to now is     6410.7 secs

     total energy              =   -3437.76322141 Ry
     estimated scf accuracy    <          2.2E-09 Ry
     electrostatic embedding   =      -0.05513762 Ry
     cavitation energy         =       0.02137908 Ry
     PV energy                 =      -0.08171767 Ry
     correction to one-el term =     184.90006534 Ry

     iteration # 41     ecut=    50.00 Ry     beta= 0.70
     Davidson diagonalization with overlap
     ethr =  5.93E-13,  avg # of iterations =  2.0

     negative rho (up, down):  1.354E-04 0.000E+00

     the potential shift due to the Gaussian-smeared nuclei is    -1.3368 ev

     total cpu time spent up to now is     6542.6 secs

     End of self-consistent calculation

          k = 0.2500 0.2666 0.0000 ( 35123 PWs)   bands (ev):

   -77.2902 -77.2772 -76.7256 -76.7132 -76.6952 -76.6883 -76.6818 -76.6694
   -76.6666 -76.6510 -76.6384 -76.6284 -47.6963 -47.6833 -47.2203 -47.2073
   -47.0820 -47.0695 -47.0161 -47.0054 -47.0035 -47.0004 -46.9539 -46.9409
   -46.8942 -46.8637 -46.8511 -46.8133 -46.7319 -46.7239 -46.7193 -46.6503
   -46.6391 -46.6378 -46.6211 -46.5701 -46.5578 -46.5493 -46.5444 -46.5369
   -46.5319 -46.5013 -46.4996 -46.4872 -46.4585 -46.4562 -46.4214 -46.4088
   -24.5248 -24.5074 -23.4681 -23.4204 -23.2205 -23.1536 -23.0420 -22.9387
   -22.9264 -22.7149 -22.6633 -22.5834 -22.4908 -22.3693 -22.2160 -22.1490
   -22.1380 -22.1153 -22.0379 -21.9867 -21.9659 -21.9480 -21.8643 -21.8558
   -21.7393 -21.6251 -20.9733 -20.9283 -12.3644 -12.3471 -11.6068 -11.3894
   -11.2966 -11.2775 -11.2469 -11.1052 -11.0637 -10.8646 -10.6925 -10.6437
   -10.6313 -10.4456 -10.4156 -10.3711 -10.3269 -10.2903 -10.2804 -10.2000
   -10.0804 -10.0547  -9.9767  -9.9333  -9.9049  -9.8076  -9.7750  -9.6239
    -9.4771  -9.3417  -9.3353  -9.2308  -9.1505  -8.9965  -8.9699  -8.8881
    -8.8332  -8.7257  -8.6178  -8.5868  -8.5685  -8.4398  -8.3961  -8.2050
    -8.1759  -8.1143  -8.1040  -7.9791  -7.9656  -7.9129  -7.7941  -7.7195
    -7.6475  -7.5741  -7.5653  -7.5198  -7.4844  -7.4445  -7.3976  -7.3747
    -7.2781  -7.2037  -7.1860  -7.1034  -7.0930  -6.9740  -6.9258  -6.8150
    -6.8089  -6.6559  -6.6469  -6.5471  -6.5452  -6.3926  -6.3404  -6.2687
    -6.2078  -6.1392  -6.1144  -6.0344  -5.9763  -5.8688  -5.8186  -5.5907
    -4.5018  -4.3947  -4.3062  -4.2776  -4.2403  -4.1826  -4.0968  -4.0777
    -4.0693  -4.0492  -3.9613  -3.9470  -3.9355  -3.9180  -3.8453  -3.8154
    -3.7601  -3.7457  -3.7126  -3.6369  -3.5362  -3.5014  -3.4000  -3.3369
    -3.2419  -3.1696  -3.0869  -2.8778  -2.7116  -2.5882  -2.5777  -2.4688
    -2.4123  -2.3952  -2.1867  -2.0769  -1.3869  -1.2502  -1.1949  -1.1485
    -0.9592  -0.8753  -0.8495  -0.2517  -0.2058   0.0803   0.1012   0.3260
     0.4439   0.4975   0.5161   0.6857   0.7814   0.8216   0.9664   1.1700
     1.1816   1.2826   1.3099   1.3187   1.4490

          k =-0.2500 0.2666 0.0000 ( 35123 PWs)   bands (ev):

   -77.2902 -77.2772 -76.7256 -76.7132 -76.6952 -76.6883 -76.6818 -76.6694
   -76.6666 -76.6510 -76.6384 -76.6284 -47.6963 -47.6833 -47.2203 -47.2073
   -47.0820 -47.0696 -47.0162 -47.0054 -47.0036 -47.0004 -46.9537 -46.9408
   -46.8942 -46.8637 -46.8511 -46.8133 -46.7320 -46.7239 -46.7193 -46.6503
   -46.6392 -46.6378 -46.6211 -46.5702 -46.5578 -46.5494 -46.5444 -46.5368
   -46.5320 -46.5013 -46.4996 -46.4872 -46.4585 -46.4562 -46.4214 -46.4088
   -24.5251 -24.5077 -23.4626 -23.4151 -23.2285 -23.1616 -23.0412 -22.9373
   -22.9250 -22.7154 -22.6622 -22.5791 -22.4932 -22.3675 -22.2159 -22.1521
   -22.1406 -22.1164 -22.0376 -21.9865 -21.9645 -21.9440 -21.8668 -21.8550
   -21.7381 -21.6255 -20.9735 -20.9284 -12.3588 -12.3415 -11.6151 -11.4142
   -11.3098 -11.2761 -11.2477 -11.0747 -11.0356 -10.8664 -10.7155 -10.6743
   -10.6391 -10.4698 -10.4416 -10.3775 -10.3236 -10.2834 -10.1934 -10.1686
   -10.0964 -10.0614  -9.9721  -9.9166  -9.8975  -9.8550  -9.7503  -9.6129
    -9.4693  -9.4113  -9.3256  -9.2340  -9.1715  -8.9816  -8.9058  -8.8754
    -8.8610  -8.7143  -8.6623  -8.5843  -8.4990  -8.4311  -8.3830  -8.2406
    -8.1876  -8.1258  -8.1140  -8.0053  -7.9906  -7.8753  -7.7935  -7.6960
    -7.6595  -7.6125  -7.5725  -7.5027  -7.5018  -7.4119  -7.4011  -7.3355
    -7.3027  -7.1957  -7.1829  -7.1098  -7.0631  -6.9708  -6.9571  -6.8343
    -6.8218  -6.6767  -6.5932  -6.5806  -6.5106  -6.3830  -6.3393  -6.3057
    -6.2364  -6.1259  -6.1174  -6.0307  -5.9435  -5.8487  -5.8391  -5.5971
    -4.5057  -4.3872  -4.3189  -4.2769  -4.2490  -4.1668  -4.0951  -4.0680
    -4.0602  -4.0543  -3.9649  -3.9527  -3.9269  -3.9037  -3.8453  -3.8196
    -3.7584  -3.7366  -3.7233  -3.6418  -3.5374  -3.5288  -3.3790  -3.3513
    -3.2306  -3.1760  -3.0938  -2.8736  -2.7188  -2.5914  -2.5749  -2.4688
    -2.4098  -2.3883  -2.1912  -2.0665  -1.3897  -1.2627  -1.1914  -1.1396
    -0.9588  -0.8751  -0.8537  -0.2495  -0.2093   0.0715   0.1024   0.3289
     0.4348   0.5064   0.5174   0.6876   0.7834   0.8305   0.9688   1.1767
     1.1831   1.2771   1.3191   1.3231   1.4285

     the Fermi energy is    -3.3156 ev

!    total energy              =   -3437.76322214 Ry
     estimated scf accuracy    <          6.1E-10 Ry
     smearing contrib. (-TS)   =       0.07132574 Ry
     internal energy E=F+TS    =   -3437.83454788 Ry

     The total energy is F=E-TS. E is the sum of the following terms:
     one-electron contribution =  -25462.48442970 Ry
     hartree contribution      =   12722.71216782 Ry
     xc contribution           =    -449.80862027 Ry
     ewald contribution        =    9833.44531748 Ry
     one-center paw contrib.   =    -266.48330418 Ry
     electrostatic embedding   =      -0.05513427 Ry
     cavitation energy         =       0.02137914 Ry
     PV energy                 =      -0.08171745 Ry
     correction to one-el term =     184.89979356 Ry

     WARNING: you are using the parabolic pbc correction;
              the potential shift above must be added to 
              band and Fermi energies.

     convergence has been achieved in  41 iterations

     negative rho (up, down):  1.354E-04 0.000E+00

     Forces acting on atoms (cartesian axes, Ry/au):

     atom    1 type  1   force =    -0.00634568   -0.00393064    0.00600554
     atom    2 type  1   force =    -0.00033246   -0.00159388   -0.00146852
     atom    3 type  1   force =    -0.00051270    0.01042186    0.00307201
     atom    4 type  1   force =    -0.00068640   -0.00331016    0.00121474
     atom    5 type  2   force =    -0.00339853   -0.00109758   -0.00122613
     atom    6 type  2   force =    -0.00048123   -0.00212621   -0.00274110
     atom    7 type  1   force =     0.00179860    0.00113872    0.00093451
     atom    8 type  1   force =    -0.00038582    0.00066342   -0.00391669
     atom    9 type  2   force =     0.00109006   -0.00059233   -0.00352642
     atom   10 type  2   force =     0.00213450    0.00275898   -0.00274878
     atom   11 type  1   force =     0.00306304   -0.00206811    0.00217128
     atom   12 type  1   force =    -0.00148143   -0.00299563   -0.00000246
     atom   13 type  1   force =    -0.00103206   -0.00144146    0.00400862
     atom   14 type  1   force =    -0.00000056    0.00072759    0.00238319
     atom   15 type  1   force =    -0.00204873    0.00097116   -0.00051622
     atom   16 type  1   force =     0.00010053    0.00099613   -0.00102439
     atom   17 type  2   force =    -0.00014656   -0.00022043    0.00000000
     atom   18 type  2   force =    -0.00063755    0.00190669    0.00000000
     atom   19 type  1   force =    -0.00210376    0.00334165    0.00000000
     atom   20 type  1   force =     0.00345090    0.00089302    0.00000000
     atom   21 type  2   force =    -0.00298186   -0.00083489    0.00000000
     atom   22 type  2   force =    -0.00138435   -0.00045972    0.00000000
     atom   23 type  1   force =    -0.00070499   -0.00247115    0.00000000
     atom   24 type  1   force =     0.00172936   -0.00033669    0.00000000
     atom   25 type  1   force =    -0.00204873    0.00097116    0.00051622
     atom   26 type  1   force =     0.00010053    0.00099613    0.00102439
     atom   27 type  1   force =    -0.00103206   -0.00144146   -0.00400862
     atom   28 type  1   force =    -0.00000056    0.00072759   -0.00238319
     atom   29 type  2   force =    -0.00339853   -0.00109758    0.00122613
     atom   30 type  2   force =    -0.00048123   -0.00212621    0.00274110
     atom   31 type  1   force =     0.00179860    0.00113872   -0.00093451
     atom   32 type  1   force =    -0.00038582    0.00066342    0.00391669
     atom   33 type  2   force =     0.00109006   -0.00059233    0.00352642
     atom   34 type  2   force =     0.00213450    0.00275898    0.00274878
     atom   35 type  1   force =     0.00306304   -0.00206811   -0.00217128
     atom   36 type  1   force =    -0.00148143   -0.00299563    0.00000246
     atom   37 type  1   force =    -0.00051270    0.01042186   -0.00307201
     atom   38 type  1   force =    -0.00068640   -0.00331016   -0.00121474
     atom   39 type  1   force =    -0.00634568   -0.00393064   -0.00600554
     atom   40 type  1   force =    -0.00033246   -0.00159388    0.00146852
     atom   41 type  3   force =     0.00905701    0.00177431   -0.00410233
     atom   42 type  3   force =     0.00905701    0.00177431    0.00410233
     atom   43 type  3   force =     0.00016336    0.00701103   -0.01078507
     atom   44 type  3   force =     0.00016336    0.00701103    0.01078507
     atom   45 type  3   force =     0.00060505   -0.00057090    0.00131709
     atom   46 type  3   force =     0.00060505   -0.00057090   -0.00131709
     atom   47 type  3   force =     0.00008286   -0.00764553   -0.00049139
     atom   48 type  3   force =     0.00008286   -0.00764553    0.00049139
     The non-local contrib.  to forces
     atom    1 type  1   force =     1.56137794   -1.02543623    0.44481801
     atom    2 type  1   force =     0.00505195    0.02520466    1.08563185
     atom    3 type  1   force =    -0.00496967   -0.93379558   -0.75300433
     atom    4 type  1   force =    -0.01860896    1.42282626    0.02423928
     atom    5 type  2   force =     0.00037384    0.00323370    0.04602450
     atom    6 type  2   force =     0.00276431    0.00334147    0.05026314
     atom    7 type  1   force =     0.01698557   -0.02953041   -0.22298446
     atom    8 type  1   force =    -0.03637803   -0.02753341   -0.18132271
     atom    9 type  2   force =    -0.00731795    0.01627214   -0.00048436
     atom   10 type  2   force =     0.00110542    0.00459960    0.00247243
     atom   11 type  1   force =     0.03380724    0.03041892    0.08914361
     atom   12 type  1   force =    -0.05999922    0.02446478    0.10949557
     atom   13 type  1   force =    -0.00767597    0.06928971    0.00027761
     atom   14 type  1   force =    -0.01167030    0.03583731   -0.06874687
     atom   15 type  1   force =    -0.03774859   -0.05861611   -0.21549229
     atom   16 type  1   force =    -0.02661447   -0.06600254    0.21495342
     atom   17 type  2   force =    -0.00949669    0.00338015    0.00000000
     atom   18 type  2   force =    -0.01323807    0.00258251    0.00000000
     atom   19 type  1   force =     0.02637267    0.05335870    0.00000000
     atom   20 type  1   force =    -0.00494927    0.05333602    0.00000000
     atom   21 type  2   force =    -0.00100052    0.00371832    0.00000000
     atom   22 type  2   force =     0.00061339    0.00379009    0.00000000
     atom   23 type  1   force =     0.03953099   -0.05714884    0.00000000
     atom   24 type  1   force =    -0.01482647   -0.05559204    0.00000000
     atom   25 type  1   force =    -0.03774859   -0.05861611    0.21549229
     atom   26 type  1   force =    -0.02661447   -0.06600254   -0.21495342
     atom   27 type  1   force =    -0.00767597    0.06928971   -0.00027761
     atom   28 type  1   force =    -0.01167030    0.03583731    0.06874687
     atom   29 type  2   force =     0.00037384    0.00323370   -0.04602450
     atom   30 type  2   force =     0.00276431    0.00334147   -0.05026314
     atom   31 type  1   force =     0.01698557   -0.02953041    0.22298446
     atom   32 type  1   force =    -0.03637803   -0.02753341    0.18132271
     atom   33 type  2   force =    -0.00731795    0.01627214    0.00048436
     atom   34 type  2   force =     0.00110542    0.00459960   -0.00247243
     atom   35 type  1   force =     0.03380724    0.03041892   -0.08914361
     atom   36 type  1   force =    -0.05999922    0.02446478   -0.10949557
     atom   37 type  1   force =    -0.00496967   -0.93379558    0.75300433
     atom   38 type  1   force =    -0.01860896    1.42282626   -0.02423928
     atom   39 type  1   force =     1.56137794   -1.02543623   -0.44481801
     atom   40 type  1   force =     0.00505195    0.02520466   -1.08563185
     atom   41 type  3   force =    -0.10216393   -0.01724539    0.02541736
     atom   42 type  3   force =    -0.10216393   -0.01724539   -0.02541736
     atom   43 type  3   force =     0.00814581    0.08002569   -0.01294584
     atom   44 type  3   force =     0.00814581    0.08002569    0.01294584
     atom   45 type  3   force =     0.00112765   -0.08380452    0.05523878
     atom   46 type  3   force =     0.00112765   -0.08380452   -0.05523878
     atom   47 type  3   force =     0.00074439    0.06444993    0.09197737
     atom   48 type  3   force =     0.00074439    0.06444993   -0.09197737
     The ionic contribution  to forces
     atom    1 type  1   force =    -3.53668943    2.79443613  -93.32264383
     atom    2 type  1   force =     0.55101833    0.18234536  -99.31174166
     atom    3 type  1   force =    -0.31467188   -0.42190493  -90.14021188
     atom    4 type  1   force =     0.34342484   -3.69035676  -92.19689598
     atom    5 type  2   force =    -0.42768343   -2.41649522 -169.44098420
     atom    6 type  2   force =     0.39796840   -2.24420274 -170.11739989
     atom    7 type  1   force =     0.50042895   -0.16039784  -58.31956747
     atom    8 type  1   force =    -0.29950659   -0.09997959  -60.27873532
     atom    9 type  2   force =    -1.44104594    2.74165923 -167.41353822
     atom   10 type  2   force =     1.53553377    3.44071415 -173.78428248
     atom   11 type  1   force =     0.18180192    0.78960023  -67.31550383
     atom   12 type  1   force =    -0.00550179    0.63830101  -68.35675281
     atom   13 type  1   force =    -0.09860460   -0.80227833  -38.42035010
     atom   14 type  1   force =     0.18911757   -0.74837756  -37.90759762
     atom   15 type  1   force =    -0.00165156    0.60622937  -24.30823227
     atom   16 type  1   force =     0.33251899    0.49485432  -27.51028017
     atom   17 type  2   force =    -0.38380245    0.98242724   -0.00044561
     atom   18 type  2   force =     0.06021532    0.92242711   -0.00045176
     atom   19 type  1   force =    -0.02150382    1.17959635   -0.00008532
     atom   20 type  1   force =     0.01497067    1.09339613   -0.00008296
     atom   21 type  2   force =     1.34073436   -0.20920132   -0.00025978
     atom   22 type  2   force =    -1.65014945   -0.25419470   -0.00025231
     atom   23 type  1   force =    -0.08236597   -1.20516542   -0.00008311
     atom   24 type  1   force =     0.04619815   -1.12094632   -0.00008169
     atom   25 type  1   force =    -0.00164645    0.60623124   24.30800304
     atom   26 type  1   force =     0.33252765    0.49485568   27.51011906
     atom   27 type  1   force =    -0.09860494   -0.80229391   38.42064008
     atom   28 type  1   force =     0.18911894   -0.74839172   37.90789583
     atom   29 type  2   force =    -0.42766349   -2.41648972  169.44127852
     atom   30 type  2   force =     0.39795056   -2.24419491  170.11769449
     atom   31 type  1   force =     0.50043148   -0.16042647   58.31963260
     atom   32 type  1   force =    -0.29950813   -0.10000556   60.27880561
     atom   33 type  2   force =    -1.44105790    2.74166978  167.41366262
     atom   34 type  2   force =     1.53554255    3.44072173  173.78443679
     atom   35 type  1   force =     0.18180517    0.78962935   67.31556644
     atom   36 type  1   force =    -0.00550462    0.63832597   68.35681859
     atom   37 type  1   force =    -0.31467611   -0.42174856   90.14012302
     atom   38 type  1   force =     0.34343011   -3.69058575   92.19697412
     atom   39 type  1   force =    -3.53674223    2.79441320   93.32283384
     atom   40 type  1   force =     0.55102242    0.18235342   99.31181918
     atom   41 type  3   force =     2.79360279    0.68926782  -15.94261982
     atom   42 type  3   force =     2.79365140    0.68927565   15.94260569
     atom   43 type  3   force =    -0.37545405   -2.20603830  -15.14653858
     atom   44 type  3   force =    -0.37545053   -2.20597436   15.14649903
     atom   45 type  3   force =     0.08688822    1.84177714  -17.02917716
     atom   46 type  3   force =     0.08688529    1.84198571   17.02918417
     atom   47 type  3   force =    -0.07365025   -2.12330666  -17.76280183
     atom   48 type  3   force =    -0.07365226   -2.12353666   17.76300492
     The local contribution  to forces
     atom    1 type  1   force =     1.91174732   -1.76018244   92.87378767
     atom    2 type  1   force =    -0.49025297   -0.15439853   98.16087026
     atom    3 type  1   force =     0.30351450    1.39169413   90.98773978
     atom    4 type  1   force =    -0.31129295    2.24033040   92.14951892
     atom    5 type  2   force =     0.47280506    2.40554730  169.42830923
     atom    6 type  2   force =    -0.44953740    2.23029942  170.07361509
     atom    7 type  1   force =    -0.50493730    0.19850409   58.54690726
     atom    8 type  1   force =     0.32417787    0.13996819   60.44436354
     atom    9 type  2   force =     1.42312059   -2.76276468  167.41554848
     atom   10 type  2   force =    -1.50299632   -3.41908694  173.70890073
     atom   11 type  1   force =    -0.18914079   -0.82944319   67.23248089
     atom   12 type  1   force =     0.03996766   -0.67866366   68.22737559
     atom   13 type  1   force =     0.10289291    0.73239810   38.43206334
     atom   14 type  1   force =    -0.17535670    0.71176676   37.97451281
     atom   15 type  1   force =     0.03545557   -0.54728443   24.52067224
     atom   16 type  1   force =    -0.30445604   -0.42793763   27.29244794
     atom   17 type  2   force =     0.39118705   -0.98610829   -0.00585260
     atom   18 type  2   force =    -0.04565500   -0.92384996   -0.00585620
     atom   19 type  1   force =    -0.00524626   -1.22866574   -0.00244215
     atom   20 type  1   force =    -0.00801027   -1.14486433   -0.00244801
     atom   21 type  2   force =    -1.33857740    0.20504290   -0.00600706
     atom   22 type  2   force =     1.64413543    0.25037580   -0.00602021
     atom   23 type  1   force =     0.04419727    1.25874067   -0.00244837
     atom   24 type  1   force =    -0.03139816    1.17506360   -0.00245155
     atom   25 type  1   force =     0.03546164   -0.54730723  -24.52243084
     atom   26 type  1   force =    -0.30444982   -0.42795416  -27.29421761
     atom   27 type  1   force =     0.10289161    0.73239197  -38.43385518
     atom   28 type  1   force =    -0.17535698    0.71176221  -37.97628705
     atom   29 type  2   force =     0.47281384    2.40555089 -169.43433933
     atom   30 type  2   force =    -0.44954696    2.23030229 -170.07964332
     atom   31 type  1   force =    -0.50491036    0.19851261  -58.54931979
     atom   32 type  1   force =     0.32414683    0.13997147  -60.44680136
     atom   33 type  2   force =     1.42314432   -2.76283122 -167.42144959
     atom   34 type  2   force =    -1.50303783   -3.41916220 -173.71464791
     atom   35 type  1   force =    -0.18910180   -0.82946450  -67.23492371
     atom   36 type  1   force =     0.03992924   -0.67867425  -68.22982508
     atom   37 type  1   force =     0.30352147    1.39168884  -90.99144533
     atom   38 type  1   force =    -0.31129820    2.24044979  -92.15329617
     atom   39 type  1   force =     1.91176504   -1.76018885  -92.87546628
     atom   40 type  1   force =    -0.49029162   -0.15447433  -98.16232859
     atom   41 type  3   force =    -2.68284086   -0.66985248   15.91994350
     atom   42 type  3   force =    -2.68284086   -0.66985248  -15.91994350
     atom   43 type  3   force =     0.36036178    2.14571209   15.15419691
     atom   44 type  3   force =     0.36036178    2.14571209  -15.15419691
     atom   45 type  3   force =    -0.08316560   -1.75815641   16.97715684
     atom   46 type  3   force =    -0.08316560   -1.75815641  -16.97715684
     atom   47 type  3   force =     0.06882233    2.06570253   17.71515145
     atom   48 type  3   force =     0.06882233    2.06570253  -17.71515145
     The core correction contribution to forces
     atom    1 type  1   force =    -0.01509213    0.00951646   -0.00480298
     atom    2 type  1   force =     0.00006871    0.00000024   -0.00956790
     atom    3 type  1   force =     0.00005315    0.00951291    0.00676617
     atom    4 type  1   force =     0.00017536   -0.01398775   -0.00086072
     atom    5 type  2   force =     0.00000000    0.00000000    0.00000000
     atom    6 type  2   force =     0.00000000    0.00000000    0.00000000
     atom    7 type  1   force =    -0.00046634   -0.00032633    0.00223761
     atom    8 type  1   force =     0.00061908   -0.00023915    0.00189973
     atom    9 type  2   force =     0.00000000    0.00000000    0.00000000
     atom   10 type  2   force =     0.00000000    0.00000000    0.00000000
     atom   11 type  1   force =    -0.00060181    0.00033656   -0.00077801
     atom   12 type  1   force =     0.00083913    0.00028435   -0.00094517
     atom   13 type  1   force =     0.00006993   -0.00073257   -0.00005550
     atom   14 type  1   force =     0.00012511   -0.00031296    0.00071410
     atom   15 type  1   force =     0.00042268    0.00056471    0.00236096
     atom   16 type  1   force =     0.00025834    0.00074980   -0.00274382
     atom   17 type  2   force =     0.00000000    0.00000000    0.00000000
     atom   18 type  2   force =     0.00000000    0.00000000    0.00000000
     atom   19 type  1   force =    -0.00026202   -0.00032421   -0.00000202
     atom   20 type  1   force =    -0.00001185   -0.00025115   -0.00000205
     atom   21 type  2   force =     0.00000000    0.00000000    0.00000000
     atom   22 type  2   force =     0.00000000    0.00000000    0.00000000
     atom   23 type  1   force =    -0.00038862    0.00037048   -0.00000190
     atom   24 type  1   force =     0.00008917    0.00029134   -0.00000192
     atom   25 type  1   force =     0.00042266    0.00056483   -0.00236349
     atom   26 type  1   force =     0.00025836    0.00075000    0.00274171
     atom   27 type  1   force =     0.00006993   -0.00073276    0.00005327
     atom   28 type  1   force =     0.00012512   -0.00031313   -0.00071633
     atom   29 type  2   force =     0.00000000    0.00000000    0.00000000
     atom   30 type  2   force =     0.00000000    0.00000000    0.00000000
     atom   31 type  1   force =    -0.00046631   -0.00032632   -0.00223942
     atom   32 type  1   force =     0.00061901   -0.00023909   -0.00190163
     atom   33 type  2   force =     0.00000000    0.00000000    0.00000000
     atom   34 type  2   force =     0.00000000    0.00000000    0.00000000
     atom   35 type  1   force =    -0.00060165    0.00033647    0.00077605
     atom   36 type  1   force =     0.00083896    0.00028425    0.00094318
     atom   37 type  1   force =     0.00005315    0.00951472   -0.00677119
     atom   38 type  1   force =     0.00017534   -0.01398996    0.00085684
     atom   39 type  1   force =    -0.01509297    0.00951649    0.00480177
     atom   40 type  1   force =     0.00006860   -0.00000004    0.00956566
     atom   41 type  3   force =     0.00000000    0.00000000    0.00000000
     atom   42 type  3   force =     0.00000000    0.00000000    0.00000000
     atom   43 type  3   force =     0.00000000    0.00000000    0.00000000
     atom   44 type  3   force =     0.00000000    0.00000000    0.00000000
     atom   45 type  3   force =     0.00000000    0.00000000    0.00000000
     atom   46 type  3   force =     0.00000000    0.00000000    0.00000000
     atom   47 type  3   force =     0.00000000    0.00000000    0.00000000
     atom   48 type  3   force =     0.00000000    0.00000000    0.00000000
     The Hubbard contrib.    to forces
     atom    1 type  1   force =     0.00000000    0.00000000    0.00000000
     atom    2 type  1   force =     0.00000000    0.00000000    0.00000000
     atom    3 type  1   force =     0.00000000    0.00000000    0.00000000
     atom    4 type  1   force =     0.00000000    0.00000000    0.00000000
     atom    5 type  2   force =     0.00000000    0.00000000    0.00000000
     atom    6 type  2   force =     0.00000000    0.00000000    0.00000000
     atom    7 type  1   force =     0.00000000    0.00000000    0.00000000
     atom    8 type  1   force =     0.00000000    0.00000000    0.00000000
     atom    9 type  2   force =     0.00000000    0.00000000    0.00000000
     atom   10 type  2   force =     0.00000000    0.00000000    0.00000000
     atom   11 type  1   force =     0.00000000    0.00000000    0.00000000
     atom   12 type  1   force =     0.00000000    0.00000000    0.00000000
     atom   13 type  1   force =     0.00000000    0.00000000    0.00000000
     atom   14 type  1   force =     0.00000000    0.00000000    0.00000000
     atom   15 type  1   force =     0.00000000    0.00000000    0.00000000
     atom   16 type  1   force =     0.00000000    0.00000000    0.00000000
     atom   17 type  2   force =     0.00000000    0.00000000    0.00000000
     atom   18 type  2   force =     0.00000000    0.00000000    0.00000000
     atom   19 type  1   force =     0.00000000    0.00000000    0.00000000
     atom   20 type  1   force =     0.00000000    0.00000000    0.00000000
     atom   21 type  2   force =     0.00000000    0.00000000    0.00000000
     atom   22 type  2   force =     0.00000000    0.00000000    0.00000000
     atom   23 type  1   force =     0.00000000    0.00000000    0.00000000
     atom   24 type  1   force =     0.00000000    0.00000000    0.00000000
     atom   25 type  1   force =     0.00000000    0.00000000    0.00000000
     atom   26 type  1   force =     0.00000000    0.00000000    0.00000000
     atom   27 type  1   force =     0.00000000    0.00000000    0.00000000
     atom   28 type  1   force =     0.00000000    0.00000000    0.00000000
     atom   29 type  2   force =     0.00000000    0.00000000    0.00000000
     atom   30 type  2   force =     0.00000000    0.00000000    0.00000000
     atom   31 type  1   force =     0.00000000    0.00000000    0.00000000
     atom   32 type  1   force =     0.00000000    0.00000000    0.00000000
     atom   33 type  2   force =     0.00000000    0.00000000    0.00000000
     atom   34 type  2   force =     0.00000000    0.00000000    0.00000000
     atom   35 type  1   force =     0.00000000    0.00000000    0.00000000
     atom   36 type  1   force =     0.00000000    0.00000000    0.00000000
     atom   37 type  1   force =     0.00000000    0.00000000    0.00000000
     atom   38 type  1   force =     0.00000000    0.00000000    0.00000000
     atom   39 type  1   force =     0.00000000    0.00000000    0.00000000
     atom   40 type  1   force =     0.00000000    0.00000000    0.00000000
     atom   41 type  3   force =     0.00000000    0.00000000    0.00000000
     atom   42 type  3   force =     0.00000000    0.00000000    0.00000000
     atom   43 type  3   force =     0.00000000    0.00000000    0.00000000
     atom   44 type  3   force =     0.00000000    0.00000000    0.00000000
     atom   45 type  3   force =     0.00000000    0.00000000    0.00000000
     atom   46 type  3   force =     0.00000000    0.00000000    0.00000000
     atom   47 type  3   force =     0.00000000    0.00000000    0.00000000
     atom   48 type  3   force =     0.00000000    0.00000000    0.00000000
     The SCF correction term to forces
     atom    1 type  1   force =     0.00000917   -0.00000038   -0.00000798
     atom    2 type  1   force =    -0.00000671   -0.00000566   -0.00000553
     atom    3 type  1   force =     0.00000408    0.00000954    0.00000082
     atom    4 type  1   force =    -0.00000464    0.00000815   -0.00001445
     atom    5 type  2   force =     0.00001012    0.00000698   -0.00002906
     atom    6 type  2   force =    -0.00001079    0.00000861   -0.00003156
     atom    7 type  1   force =     0.00000835    0.00000104   -0.00001506
     atom    8 type  1   force =    -0.00000822    0.00000535   -0.00001286
     atom    9 type  2   force =     0.00001098   -0.00000682   -0.00002762
     atom   10 type  2   force =    -0.00001267   -0.00000942   -0.00004466
     atom   11 type  1   force =     0.00000845   -0.00000358   -0.00001172
     atom   12 type  1   force =    -0.00000810   -0.00000790   -0.00000957
     atom   13 type  1   force =     0.00000642    0.00000081   -0.00000950
     atom   14 type  1   force =    -0.00000641    0.00000119   -0.00001002
     atom   15 type  1   force =     0.00000209   -0.00000064   -0.00000236
     atom   16 type  1   force =    -0.00000202   -0.00000095   -0.00000896
     atom   17 type  2   force =     0.00000455    0.00000099    0.00000854
     atom   18 type  2   force =    -0.00000424    0.00000114    0.00000854
     atom   19 type  1   force =     0.00000286    0.00000450    0.00000309
     atom   20 type  1   force =    -0.00000294    0.00000433    0.00000312
     atom   21 type  2   force =     0.00000471   -0.00000095    0.00000840
     atom   22 type  2   force =    -0.00000508   -0.00000132    0.00000847
     atom   23 type  1   force =     0.00000277   -0.00000427    0.00000314
     atom   24 type  1   force =    -0.00000283   -0.00000400    0.00000317
     atom   25 type  1   force =     0.00000206   -0.00000061    0.00000741
     atom   26 type  1   force =    -0.00000199   -0.00000091    0.00001369
     atom   27 type  1   force =     0.00000635    0.00000075    0.00001256
     atom   28 type  1   force =    -0.00000634    0.00000113    0.00001309
     atom   29 type  2   force =     0.00001007    0.00000672    0.00002856
     atom   30 type  2   force =    -0.00001072    0.00000835    0.00003104
     atom   31 type  1   force =     0.00000827    0.00000101    0.00001521
     atom   32 type  1   force =    -0.00000815    0.00000530    0.00001293
     atom   33 type  2   force =     0.00001079   -0.00000655    0.00002746
     atom   34 type  2   force =    -0.00001246   -0.00000913    0.00004320
     atom   35 type  1   force =     0.00000838   -0.00000347    0.00001131
     atom   36 type  1   force =    -0.00000803   -0.00000777    0.00000913
     atom   37 type  1   force =     0.00000400    0.00000943   -0.00000283
     atom   38 type  1   force =    -0.00000456    0.00000802    0.00001246
     atom   39 type  1   force =     0.00000910   -0.00000030    0.00000602
     atom   40 type  1   force =    -0.00000665   -0.00000557    0.00000357
     atom   41 type  3   force =     0.00000152   -0.00000038   -0.00000030
     atom   42 type  3   force =     0.00000153   -0.00000036    0.00000001
     atom   43 type  3   force =     0.00000084    0.00000102   -0.00000097
     atom   44 type  3   force =     0.00000083    0.00000101    0.00000065
     atom   45 type  3   force =    -0.00000060    0.00000155   -0.00000096
     atom   46 type  3   force =    -0.00000059    0.00000153    0.00000066
     atom   47 type  3   force =     0.00000042   -0.00000014   -0.00000136
     atom   48 type  3   force =     0.00000041   -0.00000015    0.00000106

     Total force =     0.038140     Total SCF correction =     0.000124

     BFGS Geometry Optimization
     Energy error            =      0.0E+00 Ry
     Gradient error          =      1.1E-02 Ry/Bohr

     number of scf cycles    =   1
     number of bfgs steps    =   0

     energy             new  =   -3437.7632221420 Ry

     new trust radius        =       0.0128646367 bohr
     new conv_thr            =       0.0000000010 Ry


ATOMIC_POSITIONS (crystal)
O             0.0166013198        0.4178350940        0.2651431091
O             0.4777742684        0.4482087347        0.2723183355
O            -0.0021313270        0.0117519407        0.2988065330
O             0.4974889091        0.0063096581        0.3002095707
Ru            0.2503274988       -0.0064725324        0.3589045254
Ru            0.7454440487       -0.0063127483        0.3585933849
O             0.2449800320        0.3026662410        0.3641258220
O             0.7504394792        0.3043037075        0.3620334178
Ru           -0.0013425499        0.4928252582        0.3610058634
Ru            0.4985643480        0.4933963830        0.3515363182
O             0.2425831941        0.6853548297        0.3529746776
O             0.7523628015        0.6837966915        0.3520538416
O            -0.0030253613       -0.0103270687        0.4112949582
O             0.4982099258       -0.0083644208        0.4115054699
O            -0.0010875406        0.5102541324        0.4471951219
O             0.4981260309        0.5092143899        0.4424438434
Ru           -0.0032347746        0.0059618871        0.5000010000
Ru            0.4968857827        0.0054630811        0.5000010000
O             0.2467666689        0.1942231005        0.5000010000
O             0.7451967324        0.1947217283        0.5000010000
Ru            0.2546647167        0.5069079396        0.5000010000
Ru            0.7462363327        0.5067489758        0.5000010000
O             0.2470015445        0.8190087841        0.5000010000
O             0.7453911170        0.8183480475        0.5000010000
O            -0.0010875406        0.5102541324        0.5528058781
O             0.4981260309        0.5092143899        0.5575571566
O            -0.0030253613       -0.0103270687        0.5887060418
O             0.4982099258       -0.0083644208        0.5884955301
Ru            0.2503274988       -0.0064725324        0.6410964746
Ru            0.7454440487       -0.0063127483        0.6414076151
O             0.2449800320        0.3026662410        0.6358751780
O             0.7504394792        0.3043037075        0.6379675822
Ru           -0.0013425499        0.4928252582        0.6389951366
Ru            0.4985643480        0.4933963830        0.6484646818
O             0.2425831941        0.6853548297        0.6470263224
O             0.7523628015        0.6837966915        0.6479471584
O            -0.0021313270        0.0117519407        0.7011954670
O             0.4974889091        0.0063096581        0.6997924293
O             0.0166013198        0.4178350940        0.7348578909
O             0.4777742684        0.4482087347        0.7276826645
H             0.1640590081        0.4412435034        0.2548755995
H             0.1640590081        0.4412435034        0.7451244005
H             0.0059259846        0.2519274633        0.2725277229
H             0.0059259846        0.2519274633        0.7274722771
H             0.4958106567        0.1442242217        0.2761116998
H             0.4958106567        0.1442242217        0.7238883002
H            -0.0029297872        0.9166897490        0.2630103321
H            -0.0029297872        0.9166897490        0.7369896679



     Writing config-only to output data dir /storage/home/mgm6007/ixd4/Maria/Strain2_Files/RuO2-110-0-0234/RuO2-110-0-0234.save/
     NEW-OLD atomic charge density approx. for the potential

     Check: negative core charge=   -0.000001

     negative rho (up, down):  1.356E-04 0.000E+00

     add environment contribution to local potential
     Polarization accuracy = 3.8E-12, # of iterations =  45

     total cpu time spent up to now is     6695.6 secs

     per-process dynamical memory:   217.7 Mb

     Self-consistent Calculation

     iteration #  1     ecut=    50.00 Ry     beta= 0.70
     Davidson diagonalization with overlap
     ethr =  1.00E-06,  avg # of iterations =  3.0

     Threshold (ethr) on eigenvalues was too large:
     Diagonalizing with lowered threshold

     Davidson diagonalization with overlap
     ethr =  8.96E-08,  avg # of iterations =  1.0

     negative rho (up, down):  9.852E-05 0.000E+00

     add environment contribution to local potential
     Polarization accuracy = 4.5E-12, # of iterations =  45

     total cpu time spent up to now is     6829.1 secs

     total energy              =   -3437.76395007 Ry
     estimated scf accuracy    <       0.00033930 Ry
     electrostatic embedding   =      -0.05487742 Ry
     cavitation energy         =       0.02135114 Ry
     PV energy                 =      -0.08173923 Ry
     correction to one-el term =     184.91660130 Ry

     iteration #  2     ecut=    50.00 Ry     beta= 0.70
     Davidson diagonalization with overlap
     ethr =  9.22E-08,  avg # of iterations =  2.0

     negative rho (up, down):  8.403E-05 0.000E+00

     add environment contribution to local potential
     Polarization accuracy = 3.7E-12, # of iterations =  46

     total cpu time spent up to now is     6977.9 secs

     total energy              =   -3437.76395921 Ry
     estimated scf accuracy    <       0.00027879 Ry
     electrostatic embedding   =      -0.05488158 Ry
     cavitation energy         =       0.02135807 Ry
     PV energy                 =      -0.08174166 Ry
     correction to one-el term =     184.88336875 Ry

     iteration #  3     ecut=    50.00 Ry     beta= 0.70
     Davidson diagonalization with overlap
     ethr =  7.58E-08,  avg # of iterations =  1.0

     negative rho (up, down):  5.374E-05 0.000E+00

     add environment contribution to local potential
     Polarization accuracy = 4.9E-12, # of iterations =  45

     total cpu time spent up to now is     7128.7 secs

     total energy              =   -3437.76396533 Ry
     estimated scf accuracy    <       0.00008350 Ry
     electrostatic embedding   =      -0.05492112 Ry
     cavitation energy         =       0.02135916 Ry
     PV energy                 =      -0.08174190 Ry
     correction to one-el term =     184.86791017 Ry

     iteration #  4     ecut=    50.00 Ry     beta= 0.70
     Davidson diagonalization with overlap
     ethr =  2.27E-08,  avg # of iterations =  2.0

     negative rho (up, down):  4.601E-05 0.000E+00

     add environment contribution to local potential
     Polarization accuracy = 4.3E-12, # of iterations =  45

     total cpu time spent up to now is     7265.3 secs

     total energy              =   -3437.76397020 Ry
     estimated scf accuracy    <       0.00002449 Ry
     electrostatic embedding   =      -0.05498803 Ry
     cavitation energy         =       0.02136187 Ry
     PV energy                 =      -0.08174400 Ry
     correction to one-el term =     184.82155237 Ry

     iteration #  5     ecut=    50.00 Ry     beta= 0.70
     Davidson diagonalization with overlap
     ethr =  6.65E-09,  avg # of iterations =  2.0

     negative rho (up, down):  4.027E-05 0.000E+00

     add environment contribution to local potential
     Polarization accuracy = 4.6E-12, # of iterations =  45

     total cpu time spent up to now is     7414.7 secs

     total energy              =   -3437.76397234 Ry
     estimated scf accuracy    <       0.00001991 Ry
     electrostatic embedding   =      -0.05503770 Ry
     cavitation energy         =       0.02136334 Ry
     PV energy                 =      -0.08174260 Ry
     correction to one-el term =     184.80302900 Ry

     iteration #  6     ecut=    50.00 Ry     beta= 0.70
     Davidson diagonalization with overlap
     ethr =  5.41E-09,  avg # of iterations =  1.0

     negative rho (up, down):  3.904E-05 0.000E+00

     add environment contribution to local potential
     Polarization accuracy = 3.3E-12, # of iterations =  46

     total cpu time spent up to now is     7570.8 secs

     total energy              =   -3437.76397248 Ry
     estimated scf accuracy    <       0.00000638 Ry
     electrostatic embedding   =      -0.05508801 Ry
     cavitation energy         =       0.02136463 Ry
     PV energy                 =      -0.08174098 Ry
     correction to one-el term =     184.78244831 Ry

     iteration #  7     ecut=    50.00 Ry     beta= 0.70
     Davidson diagonalization with overlap
     ethr =  1.73E-09,  avg # of iterations =  1.0

     negative rho (up, down):  4.165E-05 0.000E+00

     add environment contribution to local potential
     Polarization accuracy = 3.6E-12, # of iterations =  45

     total cpu time spent up to now is     7694.8 secs

     total energy              =   -3437.76397244 Ry
     estimated scf accuracy    <       0.00000601 Ry
     electrostatic embedding   =      -0.05515637 Ry
     cavitation energy         =       0.02136607 Ry
     PV energy                 =      -0.08173782 Ry
[...]
     atom   15 type  1   force =     0.22789352   -0.46976727   24.70378515
     atom   16 type  1   force =    -0.29066652   -0.33952577   27.28468114
     atom   17 type  2   force =     0.27484296   -0.87022086   -0.00584439
     atom   18 type  2   force =    -0.20748560   -0.93232727   -0.00584759
     atom   19 type  1   force =    -0.06814776   -1.19747060   -0.00244086
     atom   20 type  1   force =     0.06273851   -1.22718627   -0.00245009
     atom   21 type  2   force =    -1.26983127    0.14381158   -0.00600587
     atom   22 type  2   force =     1.63906988    0.27538292   -0.00602219
     atom   23 type  1   force =    -0.04003478    1.25994001   -0.00244549
     atom   24 type  1   force =     0.05028186    1.24963110   -0.00245058
     atom   25 type  1   force =     0.22790875   -0.46978805  -24.70554513
     atom   26 type  1   force =    -0.29066360   -0.33953909  -27.28645187
     atom   27 type  1   force =     0.18445257    0.65520883  -38.20299673
     atom   28 type  1   force =    -0.29534443    0.58899130  -37.85649812
     atom   29 type  2   force =     0.49465042    2.13562304 -168.18817324
     atom   30 type  2   force =    -0.33004598    1.93614901 -169.50660759
     atom   31 type  1   force =    -0.60417254    0.31399653  -58.38267793
     atom   32 type  1   force =     0.16331230    0.18294893  -61.79867246
     atom   33 type  2   force =     2.25882666   -2.27761702 -167.60543482
     atom   34 type  2   force =    -2.12301526   -3.02439646 -173.34988020
     atom   35 type  1   force =    -0.26132744   -0.96256618  -66.01683231
     atom   36 type  1   force =    -0.13081553   -0.71986880  -68.08658187
     atom   37 type  1   force =     0.39575533    0.69494877  -91.01347840
     atom   38 type  1   force =    -0.39747219    2.14499480  -91.76182609
     atom   39 type  1   force =     2.11187534   -1.76672833  -92.31191722
     atom   40 type  1   force =    -0.82689339    0.02395952  -97.73072946
     atom   41 type  3   force =    -2.46282827   -0.46727956   15.67726466
     atom   42 type  3   force =    -2.46282827   -0.46727956  -15.67726466
     atom   43 type  3   force =     0.69387411    2.65359458   15.39290684
     atom   44 type  3   force =     0.69387411    2.65359458  -15.39290684
     atom   45 type  3   force =    -0.11724670   -1.77464350   16.98310331
     atom   46 type  3   force =    -0.11724670   -1.77464350  -16.98310331
     atom   47 type  3   force =     0.07270692    2.26410419   17.45193289
     atom   48 type  3   force =     0.07270692    2.26410419  -17.45193289
     The core correction contribution to forces
     atom    1 type  1   force =    -0.01271211    0.01271101   -0.00402345
     atom    2 type  1   force =     0.00031099   -0.00021782   -0.00950409
     atom    3 type  1   force =    -0.00003708    0.01279888    0.00460165
     atom    4 type  1   force =     0.00012064   -0.01423920   -0.00042467
     atom    5 type  2   force =     0.00000000    0.00000000    0.00000000
     atom    6 type  2   force =     0.00000000    0.00000000    0.00000000
     atom    7 type  1   force =    -0.00016460   -0.00029461    0.00213454
     atom    8 type  1   force =     0.00070379   -0.00015874    0.00123115
     atom    9 type  2   force =     0.00000000    0.00000000    0.00000000
     atom   10 type  2   force =     0.00000000    0.00000000    0.00000000
     atom   11 type  1   force =    -0.00033579    0.00032375   -0.00040832
     atom   12 type  1   force =     0.00095974    0.00018584   -0.00089971
     atom   13 type  1   force =    -0.00001184   -0.00068166    0.00004082
     atom   14 type  1   force =     0.00015114   -0.00024674    0.00050087
     atom   15 type  1   force =     0.00012480    0.00056841    0.00231952
     atom   16 type  1   force =    -0.00003215    0.00076644   -0.00264820
     atom   17 type  2   force =     0.00000000    0.00000000    0.00000000
     atom   18 type  2   force =     0.00000000    0.00000000    0.00000000
     atom   19 type  1   force =    -0.00015157   -0.00026130   -0.00000203
     atom   20 type  1   force =     0.00017386   -0.00022610   -0.00000205
     atom   21 type  2   force =     0.00000000    0.00000000    0.00000000
     atom   22 type  2   force =     0.00000000    0.00000000    0.00000000
     atom   23 type  1   force =    -0.00022609    0.00029006   -0.00000193
     atom   24 type  1   force =     0.00024174    0.00023821   -0.00000191
     atom   25 type  1   force =     0.00012479    0.00056850   -0.00232211
     atom   26 type  1   force =    -0.00003211    0.00076665    0.00264603
     atom   27 type  1   force =    -0.00001184   -0.00068182   -0.00004302
     atom   28 type  1   force =     0.00015115   -0.00024690   -0.00050310
     atom   29 type  2   force =     0.00000000    0.00000000    0.00000000
     atom   30 type  2   force =     0.00000000    0.00000000    0.00000000
     atom   31 type  1   force =    -0.00016457   -0.00029460   -0.00213639
     atom   32 type  1   force =     0.00070369   -0.00015861   -0.00123306
     atom   33 type  2   force =     0.00000000    0.00000000    0.00000000
     atom   34 type  2   force =     0.00000000    0.00000000    0.00000000
     atom   35 type  1   force =    -0.00033563    0.00032365    0.00040636
     atom   36 type  1   force =     0.00095958    0.00018570    0.00089773
     atom   37 type  1   force =    -0.00003707    0.01280091   -0.00460634
     atom   38 type  1   force =     0.00012059   -0.01424141    0.00042075
     atom   39 type  1   force =    -0.01271278    0.01271138    0.00402245
     atom   40 type  1   force =     0.00031088   -0.00021810    0.00950174
     atom   41 type  3   force =     0.00000000    0.00000000    0.00000000
     atom   42 type  3   force =     0.00000000    0.00000000    0.00000000
     atom   43 type  3   force =     0.00000000    0.00000000    0.00000000
     atom   44 type  3   force =     0.00000000    0.00000000    0.00000000
     atom   45 type  3   force =     0.00000000    0.00000000    0.00000000
     atom   46 type  3   force =     0.00000000    0.00000000    0.00000000
     atom   47 type  3   force =     0.00000000    0.00000000    0.00000000
     atom   48 type  3   force =     0.00000000    0.00000000    0.00000000
     The Hubbard contrib.    to forces
     atom    1 type  1   force =     0.00000000    0.00000000    0.00000000
     atom    2 type  1   force =     0.00000000    0.00000000    0.00000000
     atom    3 type  1   force =     0.00000000    0.00000000    0.00000000
     atom    4 type  1   force =     0.00000000    0.00000000    0.00000000
     atom    5 type  2   force =     0.00000000    0.00000000    0.00000000
     atom    6 type  2   force =     0.00000000    0.00000000    0.00000000
     atom    7 type  1   force =     0.00000000    0.00000000    0.00000000
     atom    8 type  1   force =     0.00000000    0.00000000    0.00000000
     atom    9 type  2   force =     0.00000000    0.00000000    0.00000000
     atom   10 type  2   force =     0.00000000    0.00000000    0.00000000
     atom   11 type  1   force =     0.00000000    0.00000000    0.00000000
     atom   12 type  1   force =     0.00000000    0.00000000    0.00000000
     atom   13 type  1   force =     0.00000000    0.00000000    0.00000000
     atom   14 type  1   force =     0.00000000    0.00000000    0.00000000
     atom   15 type  1   force =     0.00000000    0.00000000    0.00000000
     atom   16 type  1   force =     0.00000000    0.00000000    0.00000000
     atom   17 type  2   force =     0.00000000    0.00000000    0.00000000
     atom   18 type  2   force =     0.00000000    0.00000000    0.00000000
     atom   19 type  1   force =     0.00000000    0.00000000    0.00000000
     atom   20 type  1   force =     0.00000000    0.00000000    0.00000000
     atom   21 type  2   force =     0.00000000    0.00000000    0.00000000
     atom   22 type  2   force =     0.00000000    0.00000000    0.00000000
     atom   23 type  1   force =     0.00000000    0.00000000    0.00000000
     atom   24 type  1   force =     0.00000000    0.00000000    0.00000000
     atom   25 type  1   force =     0.00000000    0.00000000    0.00000000
     atom   26 type  1   force =     0.00000000    0.00000000    0.00000000
     atom   27 type  1   force =     0.00000000    0.00000000    0.00000000
     atom   28 type  1   force =     0.00000000    0.00000000    0.00000000
     atom   29 type  2   force =     0.00000000    0.00000000    0.00000000
     atom   30 type  2   force =     0.00000000    0.00000000    0.00000000
     atom   31 type  1   force =     0.00000000    0.00000000    0.00000000
     atom   32 type  1   force =     0.00000000    0.00000000    0.00000000
     atom   33 type  2   force =     0.00000000    0.00000000    0.00000000
     atom   34 type  2   force =     0.00000000    0.00000000    0.00000000
     atom   35 type  1   force =     0.00000000    0.00000000    0.00000000
     atom   36 type  1   force =     0.00000000    0.00000000    0.00000000
     atom   37 type  1   force =     0.00000000    0.00000000    0.00000000
     atom   38 type  1   force =     0.00000000    0.00000000    0.00000000
     atom   39 type  1   force =     0.00000000    0.00000000    0.00000000
     atom   40 type  1   force =     0.00000000    0.00000000    0.00000000
     atom   41 type  3   force =     0.00000000    0.00000000    0.00000000
     atom   42 type  3   force =     0.00000000    0.00000000    0.00000000
     atom   43 type  3   force =     0.00000000    0.00000000    0.00000000
     atom   44 type  3   force =     0.00000000    0.00000000    0.00000000
     atom   45 type  3   force =     0.00000000    0.00000000    0.00000000
     atom   46 type  3   force =     0.00000000    0.00000000    0.00000000
     atom   47 type  3   force =     0.00000000    0.00000000    0.00000000
     atom   48 type  3   force =     0.00000000    0.00000000    0.00000000
     The SCF correction term to forces
     atom    1 type  1   force =     0.00000046    0.00000015    0.00000187
     atom    2 type  1   force =    -0.00000014   -0.00000104    0.00000130
     atom    3 type  1   force =    -0.00000078   -0.00000006    0.00000127
     atom    4 type  1   force =     0.00000065    0.00000046    0.00000062
     atom    5 type  2   force =     0.00000039    0.00000047    0.00000011
     atom    6 type  2   force =    -0.00000024    0.00000023   -0.00000050
     atom    7 type  1   force =    -0.00000018   -0.00000022    0.00000034
     atom    8 type  1   force =     0.00000014   -0.00000114    0.00000027
     atom    9 type  2   force =     0.00000003   -0.00000024    0.00000185
     atom   10 type  2   force =     0.00000001   -0.00000051    0.00000140
     atom   11 type  1   force =    -0.00000033    0.00000013    0.00000044
     atom   12 type  1   force =     0.00000034    0.00000114    0.00000030
     atom   13 type  1   force =    -0.00000053   -0.00000003   -0.00000025
     atom   14 type  1   force =     0.00000053    0.00000012   -0.00000100
     atom   15 type  1   force =     0.00000088   -0.00000004    0.00000015
     atom   16 type  1   force =    -0.00000083   -0.00000006    0.00000035
     atom   17 type  2   force =     0.00000015    0.00000009   -0.00000002
     atom   18 type  2   force =    -0.00000024    0.00000020   -0.00000002
     atom   19 type  1   force =    -0.00000068    0.00000103   -0.00000001
     atom   20 type  1   force =     0.00000070   -0.00000022   -0.00000001
     atom   21 type  2   force =    -0.00000105   -0.00000017   -0.00000002
     atom   22 type  2   force =     0.00000101   -0.00000013   -0.00000002
     atom   23 type  1   force =    -0.00000069   -0.00000099   -0.00000001
     atom   24 type  1   force =     0.00000069    0.00000025   -0.00000001
     atom   25 type  1   force =     0.00000088   -0.00000004   -0.00000017
     atom   26 type  1   force =    -0.00000083   -0.00000006   -0.00000036
     atom   27 type  1   force =    -0.00000053   -0.00000003    0.00000023
     atom   28 type  1   force =     0.00000054    0.00000012    0.00000099
     atom   29 type  2   force =     0.00000040    0.00000048   -0.00000013
     atom   30 type  2   force =    -0.00000024    0.00000023    0.00000048
     atom   31 type  1   force =    -0.00000018   -0.00000022   -0.00000035
     atom   32 type  1   force =     0.00000013   -0.00000114   -0.00000027
     atom   33 type  2   force =     0.00000003   -0.00000024   -0.00000187
     atom   34 type  2   force =     0.00000001   -0.00000051   -0.00000141
     atom   35 type  1   force =    -0.00000032    0.00000013   -0.00000044
     atom   36 type  1   force =     0.00000034    0.00000114   -0.00000030
     atom   37 type  1   force =    -0.00000078   -0.00000006   -0.00000127
     atom   38 type  1   force =     0.00000065    0.00000046   -0.00000062
     atom   39 type  1   force =     0.00000046    0.00000015   -0.00000187
     atom   40 type  1   force =    -0.00000014   -0.00000104   -0.00000130
     atom   41 type  3   force =     0.00000006   -0.00000003    0.00000025
     atom   42 type  3   force =     0.00000006   -0.00000003   -0.00000025
     atom   43 type  3   force =     0.00000001   -0.00000013    0.00000028
     atom   44 type  3   force =     0.00000001   -0.00000013   -0.00000028
     atom   45 type  3   force =     0.00000004   -0.00000013    0.00000026
     atom   46 type  3   force =     0.00000004   -0.00000013   -0.00000026
     atom   47 type  3   force =    -0.00000006    0.00000004    0.00000026
     atom   48 type  3   force =    -0.00000006    0.00000004   -0.00000026

     Total force =     0.000407     Total SCF correction =     0.000007
     Energy error            =      3.6E-07 Ry
     Gradient error          =      9.3E-05 Ry/Bohr

     bfgs converged in  40 scf cycles and  39 bfgs steps
     (criteria: energy <  1.0E-04 Ry, force <  1.0E-04 Ry/Bohr)

     End of BFGS Geometry Optimization

     Final energy             =   -3437.7715770407 Ry

     File /storage/home/mgm6007/ixd4/Maria/Strain2_Files/RuO2-110-0-0234/RuO2-110-0-0234.bfgs deleted, as requested
Begin final coordinates

ATOMIC_POSITIONS (crystal)
O             0.0343176533        0.4369283242        0.2627470761
O             0.4699138841        0.4476334773        0.2715472396
O            -0.0034194855        0.0119627368        0.2985882644
O             0.4946631240        0.0015028156        0.3006391207
Ru            0.2475072838       -0.0071200328        0.3592832166
Ru            0.7445877309       -0.0075818899        0.3584716292
O             0.2438170427        0.3014441881        0.3636839631
O             0.7500528545        0.3032651127        0.3595604640
Ru           -0.0008250243        0.4915030452        0.3601025833
Ru            0.4983732292        0.4923875800        0.3509810064
O             0.2429453441        0.6846086385        0.3538348262
O             0.7506483389        0.6818926613        0.3514755746
O            -0.0059467990       -0.0110523719        0.4114155766
O             0.4970295270       -0.0086852214        0.4115773183
O            -0.0063776129        0.5076941554        0.4466842667
O             0.4942086084        0.5065901111        0.4422755475
Ru           -0.0051710792        0.0036515988        0.5000010000
Ru            0.4951320972        0.0039469608        0.5000010000
O             0.2447985912        0.1924140419        0.5000010000
O             0.7448339379        0.1927764252        0.5000010000
Ru            0.2491924927        0.5047738275        0.5000010000
Ru            0.7411467385        0.5047738313        0.5000010000
O             0.2458055099        0.8167742676        0.5000010000
O             0.7440510460        0.8163950064        0.5000010000
O            -0.0063776129        0.5076941554        0.5533167333
O             0.4942086084        0.5065901111        0.5577254525
O            -0.0059467990       -0.0110523719        0.5885854234
O             0.4970295270       -0.0086852214        0.5884236817
Ru            0.2475072838       -0.0071200328        0.6407177834
Ru            0.7445877309       -0.0075818899        0.6415293708
O             0.2438170427        0.3014441881        0.6363170369
O             0.7500528545        0.3032651127        0.6404405360
Ru           -0.0008250243        0.4915030452        0.6398984167
Ru            0.4983732292        0.4923875800        0.6490199936
O             0.2429453441        0.6846086385        0.6461661738
O             0.7506483389        0.6818926613        0.6485254254
O            -0.0034194855        0.0119627368        0.7014137356
O             0.4946631240        0.0015028156        0.6993628793
O             0.0343176533        0.4369283242        0.7372539239
O             0.4699138841        0.4476334773        0.7284537604
H             0.1864802711        0.4507734866        0.2563174516
H             0.1864802711        0.4507734866        0.7436825484
H             0.0099667552        0.2742048734        0.2630381154
H             0.0099667552        0.2742048734        0.7369618846
H             0.4931193213        0.1373628973        0.2759514774
H             0.4931193213        0.1373628973        0.7240485226
H            -0.0033217141        0.9011494329        0.2666763401
H            -0.0033217141        0.9011494329        0.7333236599
End final coordinates



     Writing all to output data dir /storage/home/mgm6007/ixd4/Maria/Strain2_Files/RuO2-110-0-0234/RuO2-110-0-0234.save/
 
     init_run     :    233.23s CPU    583.28s WALL (       1 calls)
     electrons    :  43875.01s CPU 107341.01s WALL (      40 calls)
     update_pot   :     67.17s CPU     67.30s WALL (      39 calls)
     forces       :     74.46s CPU     74.87s WALL (      40 calls)

     Called by init_run:
     wfcinit      :      0.96s CPU      0.99s WALL (       1 calls)
     potinit      :    183.01s CPU    434.59s WALL (       1 calls)
     hinit0       :     48.82s CPU    147.14s WALL (       1 calls)

     Called by electrons:
     c_bands      :   2010.31s CPU   2015.35s WALL (     789 calls)
     sum_band     :    361.55s CPU    362.25s WALL (     789 calls)
     v_of_rho     :     82.13s CPU     82.53s WALL (     794 calls)
     newd         :     55.53s CPU     55.72s WALL (     794 calls)
     PAW_pot      :     97.39s CPU     97.56s WALL (     833 calls)
     mix_rho      :    626.54s CPU    627.99s WALL (     789 calls)

     Called by c_bands:
     init_us_2    :     21.15s CPU     21.29s WALL (    3316 calls)
     init_us_2:cp :     21.13s CPU     21.27s WALL (    3316 calls)
     cegterg      :   1925.36s CPU   1929.69s WALL (    1578 calls)

     Called by *egterg:
     cdiaghg      :    229.95s CPU    230.26s WALL (    4553 calls)
     h_psi        :    993.14s CPU    995.72s WALL (    4703 calls)
     s_psi        :    148.25s CPU    148.52s WALL (    4703 calls)
     g_psi        :      4.74s CPU      4.76s WALL (    3123 calls)

     Called by h_psi:
     h_psi:calbec :    151.73s CPU    152.20s WALL (    4703 calls)
     vloc_psi     :    678.51s CPU    680.27s WALL (    4703 calls)
     add_vuspsi   :    150.27s CPU    150.61s WALL (    4703 calls)

     General routines
     calbec       :    239.36s CPU    240.06s WALL (    6679 calls)
     fft          :   8809.10s CPU   8813.53s WALL (   10756 calls)
     ffts         :    225.38s CPU    225.85s WALL (  344219 calls)
     fftw         :    624.65s CPU    625.98s WALL ( 1829548 calls)
     interpolate  :   8743.66s CPU   8748.00s WALL (     794 calls)
 
     Parallel routines
 
     Environ routines
 
     PWSCF        :     12h52m CPU   1d 7h30m WALL

 
   This run was terminated on:  19:29: 9  28Jul2023            

=------------------------------------------------------------------------------=
   JOB DONE.
=------------------------------------------------------------------------------=
