
     Program PWSCF v.7.2 starts on 18Jul2023 at 16:12:34 
        Git branch: heads/qe-7.2
        Last git commit: b4c5e8deeb7d1863e7553a87b45f8d22c21926a5
        Last git commit date: Mon Mar 27 16:12:09 2023 +0000
        Last git commit subject: Merge branch 'merge_fix_hubbard' into 'develop'

     This program is part of the open-source Quantum ESPRESSO suite
     for quantum simulation of materials; please cite
         "P. Giannozzi et al., J. Phys.:Condens. Matter 21 395502 (2009);
         "P. Giannozzi et al., J. Phys.:Condens. Matter 29 465901 (2017);
         "P. Giannozzi et al., J. Chem. Phys. 152 154105 (2020);
          URL http://www.quantum-espresso.org", 
     in publications or presentations arising from this work. More details at
     http://www.quantum-espresso.org/quote

     Parallel version (MPI), running on    20 processors

     MPI processes distributed on     1 nodes
     112314 MiB available memory on the printing compute node when the environment starts
 
     Reading input from RuO2-110-0-.in
Warning: card  H 1.007940 H.PBE-RRKJUS_PSL.1.0.0.UPF ignored

     Current dimensions of program PWSCF are:
     Max number of different atomic species (ntypx) = 10
     Max number of k-points (npk) =  40000
     Max angular momentum in pseudopotentials (lmaxx) =  4
 
     Reading input from environ.in:
     * Environ restarting
     * setting up water environment
     * using electronic solvent mode
     * setting boundary derivatives method to SCCS default
     
     file O.pbe-n-kjpaw_psl.0.1.UPF: wavefunction(s)  2P renormalized
     Message from routine setup:
     using ibrav=0 with symmetry is DISCOURAGED, use correct ibrav instead
 
     R & G space division:  proc/nbgrp/npool/nimage =      20
     Subspace diagonalization in iterative solution of the eigenvalue problem:
     one sub-group per band group will be used
     scalapack distributed-memory algorithm (size of sub-group:  2*  2 procs)

 
     Parallelization info
     --------------------
     sticks:   dense  smooth     PW     G-vecs:    dense   smooth      PW
     Min         282     113     29                57460    14537    1955
     Max         283     114     30                57471    14546    1974
     Sum        5657    2263    593              1149341   290823   39271
 
     Using Slab Decomposition
 


     bravais-lattice index     =            0
     lattice parameter (alat)  =      12.1041  a.u.
     unit-cell volume          =    6089.0657 (a.u.)^3
     number of atoms/cell      =           40
     number of atomic types    =            2
     number of electrons       =       360.00
     number of Kohn-Sham states=          216
     kinetic-energy cutoff     =      50.0000  Ry
     charge density cutoff     =     500.0000  Ry
     scf convergence threshold =      1.0E-09
     mixing beta               =       0.7000
     number of iterations used =            8  local-TF  mixing
     energy convergence thresh.=      1.0E-04
     force convergence thresh. =      1.0E-04
     Exchange-correlation= PBE
                           (   1   4   3   4   0   0   0)
     nstep                     =          200


     ================================================================================
 
                                  Environ Setup Summary

     ================================================================================
 
     Please cite

          O. Andreussi, I. Dabo and N. Marzari, J. Chem. Phys. 136, 064102 (2012)

     in publications or presentations arising from this work.

     ================================================================================
 
     Parameters
     ==========

     compensation onset threshold      =               0.1000E+00
     static permittivity               =                    78.30
     surface tension in input (dyn/cm) =                    47.90
     surface tension in internal units =               0.6153E-04
     external pressure in input (GPa)  =                    -0.36
     external pressure in inter. units =              -0.2447E-04

     Solvent Boundary
     ================

     solvent mode                      =               electronic
     derivatives method                =                    chain
     numerical core for derivatives    =                      fft
     switching function adopted        =                     SCCS
     density limit for vacuum region   =               0.5000E-02
     density limit for bulk solvent    =               0.1000E-03

     Electrostatic Setup
     ===================

     electrostatic problem to solve    =              generalized
     numerical solver adopted          =                       cg
     type of auxiliary density adopted =                     none
     numerical core for poisson        =                      fft
     type of pbc corrections           =                parabolic
     numerical core for corrections    =                      1da

     ================================================================================
 

     celldm(1)=  12.104053  celldm(2)=   0.000000  celldm(3)=   0.000000
     celldm(4)=   0.000000  celldm(5)=   0.000000  celldm(6)=   0.000000

     crystal axes: (cart. coord. in units of alat)
               a(1) = (   1.000000   0.000000   0.000000 )  
               a(2) = (   0.000000   0.971735   0.000000 )  
               a(3) = (   0.000000   0.000000   3.533541 )  

     reciprocal axes: (cart. coord. in units 2 pi/alat)
               b(1) = (  1.000000  0.000000  0.000000 )  
               b(2) = (  0.000000  1.029087  0.000000 )  
               b(3) = (  0.000000  0.000000  0.283002 )  


     PseudoPot. # 1 for O  read from file:
     /gpfs/group/ixd4/default/Simon/pseudopotentials/materialscloud/SSSP_1.3.0_PBE_efficiency/O.pbe-n-kjpaw_psl.0.1.UPF
     MD5 check sum: 0234752ac141de4415c5fc33072bef88
     Pseudo is Projector augmented-wave + core cor, Zval =  6.0
     Generated using "atomic" code by A. Dal Corso  v.5.0.99 svn rev. 10869
     Shape of augmentation charge: BESSEL
     Using radial grid of 1095 points,  4 beta functions with: 
                l(1) =   0
                l(2) =   0
                l(3) =   1
                l(4) =   1
     Q(r) pseudized with 0 coefficients 


     PseudoPot. # 2 for Ru read from file:
     /gpfs/group/ixd4/default/Simon/pseudopotentials/materialscloud/SSSP_1.3.0_PBE_efficiency/Ru_ONCV_PBE-1.0.oncvpsp.upf
     MD5 check sum: be037bb81c227cfb9b1461a9f099f4bd
     Pseudo is Norm-conserving, Zval = 16.0
     Generated using ONCVPSP code by D. R. Hamann
     Using radial grid of 1458 points,  6 beta functions with: 
                l(1) =   0
                l(2) =   0
                l(3) =   1
                l(4) =   1
                l(5) =   2
                l(6) =   2

     atomic species   valence    mass     pseudopotential
        O              6.00    15.99940     O ( 1.00)
        Ru            16.00   101.07000     Ru( 1.00)

      8 Sym. Ops., with inversion, found


                                    s                        frac. trans.

      isym =  1     identity                                     

 cryst.   s( 1) = (     1          0          0      )
                  (     0          1          0      )
                  (     0          0          1      )

 cart.    s( 1) = (  1.0000000  0.0000000  0.0000000 )
                  (  0.0000000  1.0000000  0.0000000 )
                  (  0.0000000  0.0000000  1.0000000 )


      isym =  2     180 deg rotation - cart. axis [0,0,1]        

 cryst.   s( 2) = (    -1          0          0      )
                  (     0         -1          0      )
                  (     0          0          1      )

 cart.    s( 2) = ( -1.0000000  0.0000000  0.0000000 )
                  (  0.0000000 -1.0000000  0.0000000 )
                  (  0.0000000  0.0000000  1.0000000 )


      isym =  3     180 deg rotation - cart. axis [0,1,0]        

 cryst.   s( 3) = (    -1          0          0      )
                  (     0          1          0      )
                  (     0          0         -1      )

 cart.    s( 3) = ( -1.0000000  0.0000000  0.0000000 )
                  (  0.0000000  1.0000000  0.0000000 )
                  (  0.0000000  0.0000000 -1.0000000 )


      isym =  4     180 deg rotation - cart. axis [1,0,0]        

 cryst.   s( 4) = (     1          0          0      )
                  (     0         -1          0      )
                  (     0          0         -1      )

 cart.    s( 4) = (  1.0000000  0.0000000  0.0000000 )
                  (  0.0000000 -1.0000000  0.0000000 )
                  (  0.0000000  0.0000000 -1.0000000 )


      isym =  5     inversion                                    

 cryst.   s( 5) = (    -1          0          0      )
                  (     0         -1          0      )
                  (     0          0         -1      )

 cart.    s( 5) = ( -1.0000000  0.0000000  0.0000000 )
                  (  0.0000000 -1.0000000  0.0000000 )
                  (  0.0000000  0.0000000 -1.0000000 )


      isym =  6     inv. 180 deg rotation - cart. axis [0,0,1]   

 cryst.   s( 6) = (     1          0          0      )
                  (     0          1          0      )
                  (     0          0         -1      )

 cart.    s( 6) = (  1.0000000  0.0000000  0.0000000 )
                  (  0.0000000  1.0000000  0.0000000 )
                  (  0.0000000  0.0000000 -1.0000000 )


      isym =  7     inv. 180 deg rotation - cart. axis [0,1,0]   

 cryst.   s( 7) = (     1          0          0      )
                  (     0         -1          0      )
                  (     0          0          1      )

 cart.    s( 7) = (  1.0000000  0.0000000  0.0000000 )
                  (  0.0000000 -1.0000000  0.0000000 )
                  (  0.0000000  0.0000000  1.0000000 )


      isym =  8     inv. 180 deg rotation - cart. axis [1,0,0]   

 cryst.   s( 8) = (    -1          0          0      )
                  (     0          1          0      )
                  (     0          0          1      )

 cart.    s( 8) = ( -1.0000000  0.0000000  0.0000000 )
                  (  0.0000000  1.0000000  0.0000000 )
                  (  0.0000000  0.0000000  1.0000000 )


   Cartesian axes

     site n.     atom                  positions (alat units)
         1           O   tau(   1) = (   0.0000000   0.4858677   0.9874535  )
         2           O   tau(   2) = (   0.5000000   0.4858677   0.9895892  )
         3           O   tau(   3) = (   0.0000000   0.0000000   1.1051662  )
         4           O   tau(   4) = (   0.5000000   0.0000000   1.1050060  )
         5           Ru  tau(   5) = (   0.2501092   0.0000000   1.2672272  )
         6           Ru  tau(   6) = (   0.7498908   0.0000000   1.2672272  )
         7           O   tau(   7) = (   0.2505954   0.2999500   1.2796191  )
         8           O   tau(   8) = (   0.7494046   0.2999500   1.2796191  )
         9           Ru  tau(   9) = (   0.0000000   0.4858677   1.2522692  )
        10           Ru  tau(  10) = (   0.5000000   0.4858677   1.2540253  )
        11           O   tau(  11) = (   0.2505954   0.6717854   1.2796191  )
        12           O   tau(  12) = (   0.7494046   0.6717854   1.2796191  )
        13           O   tau(  13) = (   0.0000000   0.0000000   1.4659633  )
        14           O   tau(  14) = (   0.5000000   0.0000000   1.4662726  )
        15           O   tau(  15) = (   0.0000000   0.4858677   1.5690442  )
        16           O   tau(  16) = (   0.5000000   0.4858677   1.5821358  )
        17           Ru  tau(  17) = (   0.0000000   0.0000000   1.7667741  )
        18           Ru  tau(  18) = (   0.5000000   0.0000000   1.7667741  )
        19           O   tau(  19) = (   0.2489047   0.1878894   1.7667741  )
        20           O   tau(  20) = (   0.7510953   0.1878894   1.7667741  )
        21           Ru  tau(  21) = (   0.2470123   0.4858677   1.7667741  )
        22           Ru  tau(  22) = (   0.7529877   0.4858677   1.7667741  )
        23           O   tau(  23) = (   0.2489047   0.7838470   1.7667741  )
        24           O   tau(  24) = (   0.7510953   0.7838470   1.7667741  )
        25           O   tau(  25) = (   0.0000000   0.4858677   1.9645005  )
        26           O   tau(  26) = (   0.5000000   0.4858677   1.9514089  )
        27           O   tau(  27) = (   0.0000000   0.0000000   2.0675815  )
        28           O   tau(  28) = (   0.5000000   0.0000000   2.0672722  )
        29           Ru  tau(  29) = (   0.2501092   0.0000000   2.2663211  )
        30           Ru  tau(  30) = (   0.7498908   0.0000000   2.2663211  )
        31           O   tau(  31) = (   0.2505954   0.2999500   2.2539292  )
        32           O   tau(  32) = (   0.7494046   0.2999500   2.2539292  )
        33           Ru  tau(  33) = (   0.0000000   0.4858677   2.2812791  )
        34           Ru  tau(  34) = (   0.5000000   0.4858677   2.2795230  )
        35           O   tau(  35) = (   0.2505954   0.6717854   2.2539292  )
        36           O   tau(  36) = (   0.7494046   0.6717854   2.2539292  )
        37           O   tau(  37) = (   0.0000000   0.0000000   2.4283785  )
        38           O   tau(  38) = (   0.5000000   0.0000000   2.4285387  )
        39           O   tau(  39) = (   0.0000000   0.4858677   2.5460913  )
        40           O   tau(  40) = (   0.5000000   0.4858677   2.5439555  )

   Crystallographic axes

     site n.     atom                  positions (cryst. coord.)
         1           O   tau(   1) = (  0.0000000  0.5000000  0.2794515  )
         2           O   tau(   2) = (  0.5000000  0.5000000  0.2800560  )
         3           O   tau(   3) = (  0.0000000  0.0000000  0.3127645  )
         4           O   tau(   4) = (  0.5000000  0.0000000  0.3127191  )
         5           Ru  tau(   5) = (  0.2501092  0.0000000  0.3586281  )
         6           Ru  tau(   6) = (  0.7498908  0.0000000  0.3586281  )
         7           O   tau(   7) = (  0.2505954  0.3086746  0.3621350  )
         8           O   tau(   8) = (  0.7494046  0.3086746  0.3621350  )
         9           Ru  tau(   9) = (  0.0000000  0.5000000  0.3543950  )
        10           Ru  tau(  10) = (  0.5000000  0.5000000  0.3548919  )
        11           O   tau(  11) = (  0.2505954  0.6913254  0.3621350  )
        12           O   tau(  12) = (  0.7494046  0.6913254  0.3621350  )
        13           O   tau(  13) = (  0.0000000  0.0000000  0.4148709  )
        14           O   tau(  14) = (  0.5000000  0.0000000  0.4149584  )
        15           O   tau(  15) = (  0.0000000  0.5000000  0.4440430  )
        16           O   tau(  16) = (  0.5000000  0.5000000  0.4477480  )
        17           Ru  tau(  17) = (  0.0000000  0.0000000  0.5000010  )
        18           Ru  tau(  18) = (  0.5000000  0.0000000  0.5000010  )
        19           O   tau(  19) = (  0.2489047  0.1933545  0.5000010  )
        20           O   tau(  20) = (  0.7510953  0.1933545  0.5000010  )
        21           Ru  tau(  21) = (  0.2470123  0.5000000  0.5000010  )
        22           Ru  tau(  22) = (  0.7529877  0.5000000  0.5000010  )
        23           O   tau(  23) = (  0.2489047  0.8066465  0.5000010  )
        24           O   tau(  24) = (  0.7510953  0.8066465  0.5000010  )
        25           O   tau(  25) = (  0.0000000  0.5000000  0.5559580  )
        26           O   tau(  26) = (  0.5000000  0.5000000  0.5522530  )
        27           O   tau(  27) = (  0.0000000  0.0000000  0.5851301  )
        28           O   tau(  28) = (  0.5000000  0.0000000  0.5850426  )
        29           Ru  tau(  29) = (  0.2501092  0.0000000  0.6413739  )
        30           Ru  tau(  30) = (  0.7498908  0.0000000  0.6413739  )
        31           O   tau(  31) = (  0.2505954  0.3086746  0.6378670  )
        32           O   tau(  32) = (  0.7494046  0.3086746  0.6378670  )
        33           Ru  tau(  33) = (  0.0000000  0.5000000  0.6456070  )
        34           Ru  tau(  34) = (  0.5000000  0.5000000  0.6451101  )
        35           O   tau(  35) = (  0.2505954  0.6913254  0.6378670  )
        36           O   tau(  36) = (  0.7494046  0.6913254  0.6378670  )
        37           O   tau(  37) = (  0.0000000  0.0000000  0.6872365  )
        38           O   tau(  38) = (  0.5000000  0.0000000  0.6872819  )
        39           O   tau(  39) = (  0.0000000  0.5000000  0.7205495  )
        40           O   tau(  40) = (  0.5000000  0.5000000  0.7199450  )

     number of k points=     1  Marzari-Vanderbilt smearing, width (Ry)=  0.0300
                       cart. coord. in units 2pi/alat
        k(    1) = (   0.2500000   0.2572717   0.0000000), wk =   2.0000000

                       cryst. coord.
        k(    1) = (   0.2500000   0.2500000   0.0000000), wk =   2.0000000

     Dense  grid:  1149341 G-vectors     FFT dimensions: (  90,  90, 320)

     Smooth grid:   290823 G-vectors     FFT dimensions: (  60,  54, 200)

     Dynamical RAM for                 wfc:       5.99 MB

     Dynamical RAM for     wfc (w. buffer):       5.99 MB

     Dynamical RAM for           str. fact:       1.75 MB

     Dynamical RAM for           local pot:       0.00 MB

     Dynamical RAM for          nlocal pot:      12.20 MB

     Dynamical RAM for                qrad:       3.59 MB

     Dynamical RAM for          rho,v,vnew:       5.60 MB

     Dynamical RAM for               rhoin:       1.87 MB

     Dynamical RAM for            rho*nmix:      14.03 MB

     Dynamical RAM for           G-vectors:       3.40 MB

     Dynamical RAM for          h,s,v(r/c):       2.14 MB

     Dynamical RAM for          <psi|beta>:       1.45 MB

     Dynamical RAM for                 psi:      11.98 MB

     Dynamical RAM for                hpsi:      11.98 MB

     Dynamical RAM for                spsi:      11.98 MB

     Dynamical RAM for      wfcinit/wfcrot:      14.10 MB

     Dynamical RAM for           addusdens:      69.27 MB

     Dynamical RAM for          addusforce:     117.08 MB

     Estimated static dynamical RAM per process >      41.97 MB

     Estimated max dynamical RAM per process >     173.07 MB

     Estimated total dynamical RAM >       3.38 GB

     Check: negative core charge=   -0.000001

     Initial potential from superposition of free atoms

     starting charge     359.9933, renormalised to     360.0000

     add environment contribution to local potential
     Polarization accuracy = 4.6E-12, # of iterations =  22

     negative rho (up, down):  6.234E-05 0.000E+00
     Starting wfcs are  232 randomized atomic wfcs
     Checking if some PAW data can be deallocated... 
       PAW data deallocated on    6 nodes for type:  1

     total cpu time spent up to now is     1003.2 secs

     per-process dynamical memory:   147.9 Mb

     Self-consistent Calculation

     iteration #  1     ecut=    50.00 Ry     beta= 0.70
     Davidson diagonalization with overlap

---- Real-time Memory Report at c_bands before calling an iterative solver
           269 MiB given to the printing process from OS
           144 MiB allocation reported by mallinfo(arena+hblkhd)
        109480 MiB available memory on the node where the printing process lives
------------------
     ethr =  1.00E-02,  avg # of iterations =  2.0

     total cpu time spent up to now is     1343.1 secs

     total energy              =   -3424.88204095 Ry
     estimated scf accuracy    <      11.13262420 Ry
     electrostatic embedding   =      -0.00155205 Ry
     cavitation energy         =       0.01956211 Ry
     PV energy                 =      -0.08107268 Ry
     correction to one-el term =     202.76010954 Ry

     iteration #  2     ecut=    50.00 Ry     beta= 0.70
     Davidson diagonalization with overlap

---- Real-time Memory Report at c_bands before calling an iterative solver
           339 MiB given to the printing process from OS
           210 MiB allocation reported by mallinfo(arena+hblkhd)
        107952 MiB available memory on the node where the printing process lives
------------------
     ethr =  3.09E-03,  avg # of iterations =  2.0

     negative rho (up, down):  1.002E-07 0.000E+00

     total cpu time spent up to now is     1676.2 secs

     total energy              =   -3427.37950890 Ry
     estimated scf accuracy    <       2.48634070 Ry
     electrostatic embedding   =      -0.00169218 Ry
     cavitation energy         =       0.01978742 Ry
     PV energy                 =      -0.08024492 Ry
     correction to one-el term =     202.76001074 Ry

     iteration #  3     ecut=    50.00 Ry     beta= 0.70
     Davidson diagonalization with overlap

---- Real-time Memory Report at c_bands before calling an iterative solver
           354 MiB given to the printing process from OS
           210 MiB allocation reported by mallinfo(arena+hblkhd)
        107938 MiB available memory on the node where the printing process lives
------------------
     ethr =  6.91E-04,  avg # of iterations =  2.0

     negative rho (up, down):  8.066E-08 0.000E+00

     total cpu time spent up to now is     1974.0 secs

     total energy              =   -3427.65442679 Ry
     estimated scf accuracy    <       0.66217720 Ry
     electrostatic embedding   =      -0.00192208 Ry
     cavitation energy         =       0.01997730 Ry
     PV energy                 =      -0.08050569 Ry
     correction to one-el term =     202.76060840 Ry

     iteration #  4     ecut=    50.00 Ry     beta= 0.70
     Davidson diagonalization with overlap

---- Real-time Memory Report at c_bands before calling an iterative solver
           364 MiB given to the printing process from OS
           210 MiB allocation reported by mallinfo(arena+hblkhd)
        107982 MiB available memory on the node where the printing process lives
------------------
     ethr =  1.84E-04,  avg # of iterations =  2.0

     negative rho (up, down):  2.213E-08 0.000E+00

     total cpu time spent up to now is     2322.8 secs

     total energy              =   -3427.69981894 Ry
     estimated scf accuracy    <       0.18111360 Ry
     electrostatic embedding   =      -0.00189318 Ry
     cavitation energy         =       0.02020722 Ry
     PV energy                 =      -0.08016281 Ry
     correction to one-el term =     202.76027773 Ry

     iteration #  5     ecut=    50.00 Ry     beta= 0.70
     Davidson diagonalization with overlap

---- Real-time Memory Report at c_bands before calling an iterative solver
           372 MiB given to the printing process from OS
           210 MiB allocation reported by mallinfo(arena+hblkhd)
        107967 MiB available memory on the node where the printing process lives
------------------
     ethr =  5.03E-05,  avg # of iterations =  9.0

     add environment contribution to local potential
     Polarization accuracy = 5.3E-12, # of iterations =  35

     total cpu time spent up to now is     2660.4 secs

     total energy              =   -3427.70441929 Ry
     estimated scf accuracy    <       0.05793031 Ry
     electrostatic embedding   =      -0.00193001 Ry
     cavitation energy         =       0.02058368 Ry
     PV energy                 =      -0.07985920 Ry
     correction to one-el term =     202.76009898 Ry

     iteration #  6     ecut=    50.00 Ry     beta= 0.70
     Davidson diagonalization with overlap

---- Real-time Memory Report at c_bands before calling an iterative solver
           385 MiB given to the printing process from OS
           210 MiB allocation reported by mallinfo(arena+hblkhd)
        107951 MiB available memory on the node where the printing process lives
------------------
     ethr =  1.61E-05,  avg # of iterations =  8.0

     add environment contribution to local potential
     Polarization accuracy = 4.2E-12, # of iterations =  36

     total cpu time spent up to now is     2993.7 secs

     total energy              =   -3427.70963214 Ry
     estimated scf accuracy    <       0.05340599 Ry
     electrostatic embedding   =      -0.00870742 Ry
     cavitation energy         =       0.02100317 Ry
     PV energy                 =      -0.07955083 Ry
     correction to one-el term =     188.42633703 Ry

     iteration #  7     ecut=    50.00 Ry     beta= 0.70
     Davidson diagonalization with overlap

---- Real-time Memory Report at c_bands before calling an iterative solver
           392 MiB given to the printing process from OS
           210 MiB allocation reported by mallinfo(arena+hblkhd)
        107914 MiB available memory on the node where the printing process lives
------------------
     ethr =  1.48E-05,  avg # of iterations =  1.0

     add environment contribution to local potential
     Polarization accuracy = 7.1E-12, # of iterations =  36

     total cpu time spent up to now is     3331.9 secs

     total energy              =   -3427.71107572 Ry
     estimated scf accuracy    <       0.00882055 Ry
     electrostatic embedding   =      -0.00958350 Ry
     cavitation energy         =       0.02126050 Ry
     PV energy                 =      -0.07933110 Ry
     correction to one-el term =     187.08964377 Ry

     iteration #  8     ecut=    50.00 Ry     beta= 0.70
     Davidson diagonalization with overlap

---- Real-time Memory Report at c_bands before calling an iterative solver
           405 MiB given to the printing process from OS
           210 MiB allocation reported by mallinfo(arena+hblkhd)
        107877 MiB available memory on the node where the printing process lives
------------------
     ethr =  2.45E-06,  avg # of iterations =  1.0

     add environment contribution to local potential
     Polarization accuracy = 9.1E-12, # of iterations =  38

     total cpu time spent up to now is     3672.2 secs

     total energy              =   -3427.71099197 Ry
     estimated scf accuracy    <       0.00213423 Ry
     electrostatic embedding   =      -0.00997750 Ry
     cavitation energy         =       0.02139417 Ry
     PV energy                 =      -0.07920773 Ry
     correction to one-el term =     186.53138034 Ry

     iteration #  9     ecut=    50.00 Ry     beta= 0.70
     Davidson diagonalization with overlap

---- Real-time Memory Report at c_bands before calling an iterative solver
           409 MiB given to the printing process from OS
           210 MiB allocation reported by mallinfo(arena+hblkhd)
        107891 MiB available memory on the node where the printing process lives
------------------
     ethr =  5.93E-07,  avg # of iterations =  2.0

     add environment contribution to local potential
     Polarization accuracy = 8.8E-12, # of iterations =  38

     total cpu time spent up to now is     4015.0 secs

     total energy              =   -3427.71127980 Ry
     estimated scf accuracy    <       0.00139804 Ry
     electrostatic embedding   =      -0.01065657 Ry
     cavitation energy         =       0.02164729 Ry
     PV energy                 =      -0.07896946 Ry
     correction to one-el term =     185.69848806 Ry

     iteration # 10     ecut=    50.00 Ry     beta= 0.70
     Davidson diagonalization with overlap

---- Real-time Memory Report at c_bands before calling an iterative solver
           417 MiB given to the printing process from OS
           210 MiB allocation reported by mallinfo(arena+hblkhd)
        107891 MiB available memory on the node where the printing process lives
------------------
     ethr =  3.88E-07,  avg # of iterations =  1.0

     add environment contribution to local potential
     Polarization accuracy = 2.5E-12, # of iterations =  40

     total cpu time spent up to now is     4358.1 secs

     total energy              =   -3427.71144175 Ry
     estimated scf accuracy    <       0.00117224 Ry
     electrostatic embedding   =      -0.01099972 Ry
     cavitation energy         =       0.02180612 Ry
     PV energy                 =      -0.07882205 Ry
     correction to one-el term =     185.37315913 Ry

     iteration # 11     ecut=    50.00 Ry     beta= 0.70
     Davidson diagonalization with overlap

---- Real-time Memory Report at c_bands before calling an iterative solver
           419 MiB given to the printing process from OS
           210 MiB allocation reported by mallinfo(arena+hblkhd)
        107892 MiB available memory on the node where the printing process lives
------------------
     ethr =  3.26E-07,  avg # of iterations =  1.0

     add environment contribution to local potential
     Polarization accuracy = 9.5E-12, # of iterations =  38

     total cpu time spent up to now is     4712.4 secs

     total energy              =   -3427.71154479 Ry
     estimated scf accuracy    <       0.00110823 Ry
     electrostatic embedding   =      -0.01088115 Ry
     cavitation energy         =       0.02181200 Ry
     PV energy                 =      -0.07881062 Ry
     correction to one-el term =     185.56306113 Ry

     iteration # 12     ecut=    50.00 Ry     beta= 0.70
     Davidson diagonalization with overlap

---- Real-time Memory Report at c_bands before calling an iterative solver
           421 MiB given to the printing process from OS
           210 MiB allocation reported by mallinfo(arena+hblkhd)
        107892 MiB available memory on the node where the printing process lives
------------------
     ethr =  3.08E-07,  avg # of iterations =  1.0

     negative rho (up, down):  1.267E-07 0.000E+00

     add environment contribution to local potential
     Polarization accuracy = 3.5E-12, # of iterations =  39

     total cpu time spent up to now is     5076.7 secs

     total energy              =   -3427.71166618 Ry
     estimated scf accuracy    <       0.00094523 Ry
     electrostatic embedding   =      -0.01074953 Ry
     cavitation energy         =       0.02181655 Ry
     PV energy                 =      -0.07879892 Ry
     correction to one-el term =     185.78138033 Ry

     iteration # 13     ecut=    50.00 Ry     beta= 0.70
     Davidson diagonalization with overlap

---- Real-time Memory Report at c_bands before calling an iterative solver
           425 MiB given to the printing process from OS
           210 MiB allocation reported by mallinfo(arena+hblkhd)
        107893 MiB available memory on the node where the printing process lives
------------------
     ethr =  2.63E-07,  avg # of iterations =  1.0

     negative rho (up, down):  2.864E-04 0.000E+00

     add environment contribution to local potential
     Polarization accuracy = 3.1E-12, # of iterations =  39

     total cpu time spent up to now is     5412.3 secs

     total energy              =   -3427.71181543 Ry
     estimated scf accuracy    <       0.00045450 Ry
     electrostatic embedding   =      -0.01039330 Ry
     cavitation energy         =       0.02179701 Ry
     PV energy                 =      -0.07881022 Ry
     correction to one-el term =     186.24156891 Ry

     iteration # 14     ecut=    50.00 Ry     beta= 0.70
     Davidson diagonalization with overlap

---- Real-time Memory Report at c_bands before calling an iterative solver
           428 MiB given to the printing process from OS
           210 MiB allocation reported by mallinfo(arena+hblkhd)
        107888 MiB available memory on the node where the printing process lives
------------------
     ethr =  1.26E-07,  avg # of iterations =  1.0

     negative rho (up, down):  5.543E-04 0.000E+00

     add environment contribution to local potential
     Polarization accuracy = 8.2E-12, # of iterations =  38

     total cpu time spent up to now is     5759.1 secs

     total energy              =   -3427.71187015 Ry
     estimated scf accuracy    <       0.00029109 Ry
     electrostatic embedding   =      -0.00991863 Ry
     cavitation energy         =       0.02174268 Ry
     PV energy                 =      -0.07883874 Ry
     correction to one-el term =     186.86709753 Ry

     iteration # 15     ecut=    50.00 Ry     beta= 0.70
     Davidson diagonalization with overlap

---- Real-time Memory Report at c_bands before calling an iterative solver
           432 MiB given to the printing process from OS
           210 MiB allocation reported by mallinfo(arena+hblkhd)
        107890 MiB available memory on the node where the printing process lives
------------------
     ethr =  8.09E-08,  avg # of iterations =  1.0

     negative rho (up, down):  2.482E-03 0.000E+00

     add environment contribution to local potential
     Polarization accuracy = 3.6E-12, # of iterations =  38

     total cpu time spent up to now is     6083.0 secs

     total energy              =   -3427.71188588 Ry
     estimated scf accuracy    <       0.00013409 Ry
     electrostatic embedding   =      -0.00968798 Ry
     cavitation energy         =       0.02171223 Ry
     PV energy                 =      -0.07885649 Ry
     correction to one-el term =     187.08991104 Ry

     iteration # 16     ecut=    50.00 Ry     beta= 0.70
     Davidson diagonalization with overlap

---- Real-time Memory Report at c_bands before calling an iterative solver
           435 MiB given to the printing process from OS
           210 MiB allocation reported by mallinfo(arena+hblkhd)
        107889 MiB available memory on the node where the printing process lives
------------------
     ethr =  3.72E-08,  avg # of iterations =  1.0

     negative rho (up, down):  7.752E-04 0.000E+00

     add environment contribution to local potential
     Polarization accuracy = 5.4E-12, # of iterations =  39

     total cpu time spent up to now is     6460.6 secs

     total energy              =   -3427.71188335 Ry
     estimated scf accuracy    <       0.00004120 Ry
     electrostatic embedding   =      -0.00925169 Ry
     cavitation energy         =       0.02165593 Ry
     PV energy                 =      -0.07889077 Ry
     correction to one-el term =     187.39388540 Ry

     iteration # 17     ecut=    50.00 Ry     beta= 0.70
     Davidson diagonalization with overlap

---- Real-time Memory Report at c_bands before calling an iterative solver
           438 MiB given to the printing process from OS
           210 MiB allocation reported by mallinfo(arena+hblkhd)
        107889 MiB available memory on the node where the printing process lives
------------------
     ethr =  1.14E-08,  avg # of iterations =  1.0

     negative rho (up, down):  2.571E-04 0.000E+00

     add environment contribution to local potential
     Polarization accuracy = 4.8E-12, # of iterations =  38

     total cpu time spent up to now is     6731.7 secs

     total energy              =   -3427.71188836 Ry
     estimated scf accuracy    <       0.00000448 Ry
     electrostatic embedding   =      -0.00943591 Ry
     cavitation energy         =       0.02169390 Ry
     PV energy                 =      -0.07885687 Ry
     correction to one-el term =     187.16733000 Ry

     iteration # 18     ecut=    50.00 Ry     beta= 0.70
     Davidson diagonalization with overlap

---- Real-time Memory Report at c_bands before calling an iterative solver
           440 MiB given to the printing process from OS
           210 MiB allocation reported by mallinfo(arena+hblkhd)
        107882 MiB available memory on the node where the printing process lives
------------------
     ethr =  1.24E-09,  avg # of iterations =  2.0

     negative rho (up, down):  2.759E-04 0.000E+00

     add environment contribution to local potential
     Polarization accuracy = 5.0E-12, # of iterations =  38

     total cpu time spent up to now is     7059.3 secs

     total energy              =   -3427.71188890 Ry
     estimated scf accuracy    <       0.00000337 Ry
     electrostatic embedding   =      -0.00945510 Ry
     cavitation energy         =       0.02170142 Ry
     PV energy                 =      -0.07884666 Ry
     correction to one-el term =     187.10252326 Ry

     iteration # 19     ecut=    50.00 Ry     beta= 0.70
     Davidson diagonalization with overlap

---- Real-time Memory Report at c_bands before calling an iterative solver
           443 MiB given to the printing process from OS
           210 MiB allocation reported by mallinfo(arena+hblkhd)
        107888 MiB available memory on the node where the printing process lives
------------------
     ethr =  9.35E-10,  avg # of iterations =  1.0

     negative rho (up, down):  2.392E-04 0.000E+00

     add environment contribution to local potential
     Polarization accuracy = 5.0E-12, # of iterations =  38

     total cpu time spent up to now is     7364.3 secs

     total energy              =   -3427.71188938 Ry
     estimated scf accuracy    <       0.00000086 Ry
     electrostatic embedding   =      -0.00944333 Ry
     cavitation energy         =       0.02170313 Ry
     PV energy                 =      -0.07884243 Ry
     correction to one-el term =     187.10000331 Ry

     iteration # 20     ecut=    50.00 Ry     beta= 0.70
     Davidson diagonalization with overlap

---- Real-time Memory Report at c_bands before calling an iterative solver
           445 MiB given to the printing process from OS
           210 MiB allocation reported by mallinfo(arena+hblkhd)
        107888 MiB available memory on the node where the printing process lives
------------------
     ethr =  2.38E-10,  avg # of iterations =  5.0

     negative rho (up, down):  2.016E-04 0.000E+00

     add environment contribution to local potential
     Polarization accuracy = 5.2E-12, # of iterations =  38

     total cpu time spent up to now is     7720.7 secs

     total energy              =   -3427.71188992 Ry
     estimated scf accuracy    <       0.00000023 Ry
     electrostatic embedding   =      -0.00942654 Ry
     cavitation energy         =       0.02170220 Ry
     PV energy                 =      -0.07884073 Ry
     correction to one-el term =     187.10021488 Ry

     iteration # 21     ecut=    50.00 Ry     beta= 0.70
     Davidson diagonalization with overlap

---- Real-time Memory Report at c_bands before calling an iterative solver
           449 MiB given to the printing process from OS
           210 MiB allocation reported by mallinfo(arena+hblkhd)
        107883 MiB available memory on the node where the printing process lives
------------------
     ethr =  6.32E-11,  avg # of iterations =  5.0

     negative rho (up, down):  1.897E-04 0.000E+00

     add environment contribution to local potential
     Polarization accuracy = 5.2E-12, # of iterations =  38

     total cpu time spent up to now is     8076.7 secs

     total energy              =   -3427.71189032 Ry
     estimated scf accuracy    <       0.00000016 Ry
     electrostatic embedding   =      -0.00943107 Ry
     cavitation energy         =       0.02170332 Ry
     PV energy                 =      -0.07883905 Ry
     correction to one-el term =     187.09385983 Ry

     iteration # 22     ecut=    50.00 Ry     beta= 0.70
     Davidson diagonalization with overlap

---- Real-time Memory Report at c_bands before calling an iterative solver
           452 MiB given to the printing process from OS
           210 MiB allocation reported by mallinfo(arena+hblkhd)
        107885 MiB available memory on the node where the printing process lives
------------------
     ethr =  4.52E-11,  avg # of iterations =  1.0

     negative rho (up, down):  1.846E-04 0.000E+00

     add environment contribution to local potential
     Polarization accuracy = 6.0E-12, # of iterations =  39

     total cpu time spent up to now is     8446.0 secs

     total energy              =   -3427.71189082 Ry
     estimated scf accuracy    <       0.00000016 Ry
     electrostatic embedding   =      -0.00943106 Ry
     cavitation energy         =       0.02170339 Ry
     PV energy                 =      -0.07883858 Ry
     correction to one-el term =     187.09298507 Ry

     iteration # 23     ecut=    50.00 Ry     beta= 0.70
     Davidson diagonalization with overlap

---- Real-time Memory Report at c_bands before calling an iterative solver
           453 MiB given to the printing process from OS
           210 MiB allocation reported by mallinfo(arena+hblkhd)
        107883 MiB available memory on the node where the printing process lives
------------------
     ethr =  4.42E-11,  avg # of iterations =  1.0

     negative rho (up, down):  1.862E-04 0.000E+00

     add environment contribution to local potential
     Polarization accuracy = 5.1E-12, # of iterations =  38

     total cpu time spent up to now is     8769.1 secs

     total energy              =   -3427.71189126 Ry
     estimated scf accuracy    <       0.00000015 Ry
     electrostatic embedding   =      -0.00942960 Ry
     cavitation energy         =       0.02170333 Ry
     PV energy                 =      -0.07883835 Ry
     correction to one-el term =     187.09287939 Ry

     iteration # 24     ecut=    50.00 Ry     beta= 0.70
     Davidson diagonalization with overlap

---- Real-time Memory Report at c_bands before calling an iterative solver
           454 MiB given to the printing process from OS
           210 MiB allocation reported by mallinfo(arena+hblkhd)
        107881 MiB available memory on the node where the printing process lives
------------------
     ethr =  4.18E-11,  avg # of iterations =  1.0

     negative rho (up, down):  1.926E-04 0.000E+00

     add environment contribution to local potential
     Polarization accuracy = 4.9E-12, # of iterations =  38

     total cpu time spent up to now is     9039.4 secs

     total energy              =   -3427.71189241 Ry
     estimated scf accuracy    <       0.00000013 Ry
     electrostatic embedding   =      -0.00942658 Ry
     cavitation energy         =       0.02170286 Ry
     PV energy                 =      -0.07883854 Ry
     correction to one-el term =     187.09532861 Ry

     iteration # 25     ecut=    50.00 Ry     beta= 0.70
     Davidson diagonalization with overlap

---- Real-time Memory Report at c_bands before calling an iterative solver
           456 MiB given to the printing process from OS
           210 MiB allocation reported by mallinfo(arena+hblkhd)
        107885 MiB available memory on the node where the printing process lives
------------------
     ethr =  3.69E-11,  avg # of iterations =  3.0

     negative rho (up, down):  1.921E-04 0.000E+00

     add environment contribution to local potential
     Polarization accuracy = 4.5E-12, # of iterations =  38

     total cpu time spent up to now is     9387.2 secs

     total energy              =   -3427.71189681 Ry
     estimated scf accuracy    <       0.00000011 Ry
     electrostatic embedding   =      -0.00942337 Ry
     cavitation energy         =       0.02170239 Ry
     PV energy                 =      -0.07883916 Ry
     correction to one-el term =     187.09863302 Ry

     iteration # 26     ecut=    50.00 Ry     beta= 0.70
     Davidson diagonalization with overlap

---- Real-time Memory Report at c_bands before calling an iterative solver
           459 MiB given to the printing process from OS
           210 MiB allocation reported by mallinfo(arena+hblkhd)
        107881 MiB available memory on the node where the printing process lives
------------------
     ethr =  3.08E-11,  avg # of iterations =  6.0

     negative rho (up, down):  2.044E-04 0.000E+00

     add environment contribution to local potential
     Polarization accuracy = 4.9E-12, # of iterations =  39

     total cpu time spent up to now is     9705.2 secs

     total energy              =   -3427.71190457 Ry
     estimated scf accuracy    <       0.00000008 Ry
     electrostatic embedding   =      -0.00942382 Ry
     cavitation energy         =       0.02170232 Ry
     PV energy                 =      -0.07883956 Ry
     correction to one-el term =     187.09980682 Ry

     iteration # 27     ecut=    50.00 Ry     beta= 0.70
     Davidson diagonalization with overlap

---- Real-time Memory Report at c_bands before calling an iterative solver
           462 MiB given to the printing process from OS
           210 MiB allocation reported by mallinfo(arena+hblkhd)
        107876 MiB available memory on the node where the printing process lives
------------------
     ethr =  2.36E-11,  avg # of iterations =  5.0

     negative rho (up, down):  1.983E-04 0.000E+00

     add environment contribution to local potential
     Polarization accuracy = 4.3E-12, # of iterations =  38

     total cpu time spent up to now is    10052.2 secs

     total energy              =   -3427.71191514 Ry
     estimated scf accuracy    <       0.00000003 Ry
     electrostatic embedding   =      -0.00942586 Ry
     cavitation energy         =       0.02170242 Ry
     PV energy                 =      -0.07884030 Ry
     correction to one-el term =     187.10050582 Ry

     iteration # 28     ecut=    50.00 Ry     beta= 0.70
     Davidson diagonalization with overlap

---- Real-time Memory Report at c_bands before calling an iterative solver
           464 MiB given to the printing process from OS
           210 MiB allocation reported by mallinfo(arena+hblkhd)
        107872 MiB available memory on the node where the printing process lives
------------------
     ethr =  8.89E-12,  avg # of iterations =  6.0

     negative rho (up, down):  1.923E-04 0.000E+00

     add environment contribution to local potential
     Polarization accuracy = 4.3E-12, # of iterations =  38

     total cpu time spent up to now is    10402.8 secs

     total energy              =   -3427.71192307 Ry
     estimated scf accuracy    <          8.0E-09 Ry
     electrostatic embedding   =      -0.00942912 Ry
     cavitation energy         =       0.02170300 Ry
     PV energy                 =      -0.07883986 Ry
     correction to one-el term =     187.09696281 Ry

     iteration # 29     ecut=    50.00 Ry     beta= 0.70
     Davidson diagonalization with overlap

---- Real-time Memory Report at c_bands before calling an iterative solver
           468 MiB given to the printing process from OS
           210 MiB allocation reported by mallinfo(arena+hblkhd)
        107862 MiB available memory on the node where the printing process lives
------------------
     ethr =  2.23E-12,  avg # of iterations =  5.0

     negative rho (up, down):  1.901E-04 0.000E+00

     add environment contribution to local potential
     Polarization accuracy = 4.3E-12, # of iterations =  38

     total cpu time spent up to now is    10706.5 secs

     total energy              =   -3427.71192649 Ry
     estimated scf accuracy    <       0.00000001 Ry
     electrostatic embedding   =      -0.00942902 Ry
     cavitation energy         =       0.02170304 Ry
     PV energy                 =      -0.07883941 Ry
     correction to one-el term =     187.09599350 Ry

     iteration # 30     ecut=    50.00 Ry     beta= 0.70
     Davidson diagonalization with overlap

---- Real-time Memory Report at c_bands before calling an iterative solver
           471 MiB given to the printing process from OS
           210 MiB allocation reported by mallinfo(arena+hblkhd)
        107861 MiB available memory on the node where the printing process lives
------------------
     ethr =  2.23E-12,  avg # of iterations =  2.0

     negative rho (up, down):  1.892E-04 0.000E+00

     add environment contribution to local potential
     Polarization accuracy = 4.3E-12, # of iterations =  38

     total cpu time spent up to now is    10981.0 secs

     total energy              =   -3427.71192753 Ry
     estimated scf accuracy    <          4.4E-09 Ry
     electrostatic embedding   =      -0.00942998 Ry
     cavitation energy         =       0.02170320 Ry
     PV energy                 =      -0.07883909 Ry
     correction to one-el term =     187.09458235 Ry

     iteration # 31     ecut=    50.00 Ry     beta= 0.70
     Davidson diagonalization with overlap

---- Real-time Memory Report at c_bands before calling an iterative solver
           473 MiB given to the printing process from OS
           210 MiB allocation reported by mallinfo(arena+hblkhd)
        107860 MiB available memory on the node where the printing process lives
------------------
     ethr =  1.23E-12,  avg # of iterations =  1.0

     negative rho (up, down):  1.883E-04 0.000E+00

     add environment contribution to local potential
     Polarization accuracy = 4.8E-12, # of iterations =  39

     total cpu time spent up to now is    11348.0 secs

     total energy              =   -3427.71192775 Ry
     estimated scf accuracy    <          2.2E-09 Ry
     electrostatic embedding   =      -0.00942971 Ry
     cavitation energy         =       0.02170320 Ry
     PV energy                 =      -0.07883894 Ry
     correction to one-el term =     187.09435350 Ry

     iteration # 32     ecut=    50.00 Ry     beta= 0.70
     Davidson diagonalization with overlap

---- Real-time Memory Report at c_bands before calling an iterative solver
           473 MiB given to the printing process from OS
           210 MiB allocation reported by mallinfo(arena+hblkhd)
        107856 MiB available memory on the node where the printing process lives
------------------
     ethr =  6.13E-13,  avg # of iterations =  4.0

     negative rho (up, down):  1.939E-04 0.000E+00

     the potential shift due to the Gaussian-smeared nuclei is    -1.2635 ev

     total cpu time spent up to now is    11702.3 secs

     End of self-consistent calculation

          k = 0.2500 0.2573 0.0000 ( 36336 PWs)   bands (ev):

   -79.8062 -79.7974 -79.7898 -79.7810 -79.2714 -79.2662 -79.2554 -79.2501
   -78.7330 -78.7281 -78.6790 -78.6634 -50.3800 -50.3698 -50.3636 -50.3534
   -49.7236 -49.7072 -49.6306 -49.6142 -49.4012 -49.3850 -49.3769 -49.3606
   -49.3564 -49.3463 -49.3424 -49.3404 -49.3301 -49.3263 -49.2508 -49.2348
   -49.1454 -49.1292 -49.1279 -49.1119 -48.9950 -48.9808 -48.9762 -48.9701
   -48.6892 -48.6237 -48.5956 -48.5780 -48.5624 -48.5253 -48.4811 -48.4492
   -25.0662 -24.9072 -24.6682 -24.4771 -24.4718 -24.4154 -24.3079 -24.2833
   -24.1314 -24.0975 -23.9891 -23.9741 -23.8478 -23.8190 -23.7901 -23.7743
   -23.7389 -23.7349 -23.6854 -23.6446 -23.4985 -23.4711 -23.4537 -23.3045
   -23.2269 -23.2056 -23.1635 -23.0184 -13.2488 -13.2327 -12.9637 -12.8394
   -12.6941 -12.6486 -12.5950 -12.5098 -12.4814 -12.4596 -12.3272 -12.2983
   -12.2919 -12.2311 -12.0621 -12.0286 -11.9511 -11.9175 -11.9023 -11.8552
   -11.7431 -11.6868 -11.6163 -11.5348 -11.4531 -11.3090 -11.1968 -11.1431
   -10.9954 -10.9084 -10.8385 -10.7363 -10.7049 -10.6570 -10.5011 -10.4444
   -10.4047 -10.3382 -10.2424 -10.1275 -10.0135 -10.0016  -9.9436  -9.8423
    -9.8168  -9.7807  -9.7302  -9.6645  -9.6575  -9.5439  -9.5036  -9.4992
    -9.4880  -9.4847  -9.3572  -9.2111  -9.2098  -9.1548  -9.0604  -9.0186
    -8.9313  -8.8888  -8.7338  -8.6647  -8.6016  -8.5455  -8.5340  -8.4778
    -8.3401  -8.2129  -8.1938  -8.1078  -8.0263  -8.0036  -7.9869  -7.8866
    -7.7957  -7.7214  -7.6403  -7.6116  -7.5588  -7.4680  -7.3041  -7.1114
    -6.5637  -6.5431  -6.3927  -6.2977  -6.1734  -6.1677  -6.1256  -6.0552
    -6.0203  -5.9314  -5.9041  -5.8947  -5.8734  -5.8280  -5.7543  -5.5776
    -5.5439  -5.4625  -5.4099  -5.3458  -5.1936  -5.0402  -5.0230  -4.9904
    -4.9539  -4.8458  -4.7288  -4.7277  -4.6461  -4.5825  -4.5795  -4.5662
    -4.4186  -4.3757  -4.2401  -4.0600  -3.5290  -3.3573  -3.2471  -2.8346
    -2.8031  -2.6851  -2.3153  -2.0167  -1.9828  -1.6899  -1.5179  -1.4684
    -1.4116  -1.2911  -1.1676  -1.1105  -1.0924  -0.9703  -0.9060  -0.7397

     occupation numbers 
     1.0000   1.0000   1.0000   1.0000   1.0000   1.0000   1.0000   1.0000
     1.0000   1.0000   1.0000   1.0000   1.0000   1.0000   1.0000   1.0000
     1.0000   1.0000   1.0000   1.0000   1.0000   1.0000   1.0000   1.0000
     1.0000   1.0000   1.0000   1.0000   1.0000   1.0000   1.0000   1.0000
     1.0000   1.0000   1.0000   1.0000   1.0000   1.0000   1.0000   1.0000
     1.0000   1.0000   1.0000   1.0000   1.0000   1.0000   1.0000   1.0000
     1.0000   1.0000   1.0000   1.0000   1.0000   1.0000   1.0000   1.0000
     1.0000   1.0000   1.0000   1.0000   1.0000   1.0000   1.0000   1.0000
     1.0000   1.0000   1.0000   1.0000   1.0000   1.0000   1.0000   1.0000
     1.0000   1.0000   1.0000   1.0000   1.0000   1.0000   1.0000   1.0000
     1.0000   1.0000   1.0000   1.0000   1.0000   1.0000   1.0000   1.0000
     1.0000   1.0000   1.0000   1.0000   1.0000   1.0000   1.0000   1.0000
     1.0000   1.0000   1.0000   1.0000   1.0000   1.0000   1.0000   1.0000
     1.0000   1.0000   1.0000   1.0000   1.0000   1.0000   1.0000   1.0000
     1.0000   1.0000   1.0000   1.0000   1.0000   1.0000   1.0000   1.0000
     1.0000   1.0000   1.0000   1.0000   1.0000   1.0000   1.0000   1.0000
     1.0000   1.0000   1.0000   1.0000   1.0000   1.0000   1.0000   1.0000
     1.0000   1.0000   1.0000   1.0000   1.0000   1.0000   1.0000   1.0000
     1.0000   1.0000   1.0000   1.0000   1.0000   1.0000   1.0000   1.0000
     1.0000   1.0000   1.0000   1.0000   1.0000   1.0000   1.0000   1.0000
     1.0008   1.0010   1.0046   1.0106   1.0262   1.0272   1.0350   1.0502
     1.0583   1.0765   1.0804   1.0814   1.0829   1.0821   1.0647   0.9123
     0.8646   0.7310   0.6359   0.5177   0.2696   0.1089   0.0968   0.0767
     0.0583   0.0237   0.0077   0.0076   0.0031   0.0015   0.0014   0.0012
     0.0002   0.0001   0.0000   0.0000   0.0000   0.0000   0.0000   0.0000
     0.0000   0.0000   0.0000   0.0000   0.0000   0.0000   0.0000   0.0000
     0.0000   0.0000   0.0000   0.0000   0.0000   0.0000   0.0000   0.0000

     the Fermi energy is    -5.2791 ev

!    total energy              =   -3427.71192792 Ry
     estimated scf accuracy    <          7.8E-10 Ry
     smearing contrib. (-TS)   =       0.03219331 Ry
     internal energy E=F+TS    =   -3427.74412123 Ry

     The total energy is F=E-TS. E is the sum of the following terms:
     one-electron contribution =  -26563.68622430 Ry
     hartree contribution      =   13245.52912775 Ry
     xc contribution           =    -442.40954405 Ry
     ewald contribution        =   10412.45449300 Ry
     one-center paw contrib.   =    -266.65967983 Ry
      -> PAW hartree energy AE =      50.18134568 Ry
      -> PAW hartree energy PS =     -49.96453454 Ry
      -> PAW xc energy AE      =     -33.04908993 Ry
      -> PAW xc energy PS      =      13.75049464 Ry
      -> total E_H with PAW    =   13245.74593889 Ry
      -> total E_XC with PAW   =    -461.70813934 Ry
     electrostatic embedding   =      -0.00942889 Ry
     cavitation energy         =       0.02170314 Ry
     PV energy                 =      -0.07883869 Ry
     correction to one-el term =     187.09427063 Ry

     WARNING: you are using the parabolic pbc correction;
              the potential shift above must be added to 
              band and Fermi energies.

     convergence has been achieved in  32 iterations

     negative rho (up, down):  1.939E-04 0.000E+00
     The dielectric solvent contribution to forces
     atom    1 type  1   force =    -0.00000000   -0.00000005    0.05640453
     atom    2 type  1   force =     0.00000000   -0.00000006    0.05415803
     atom    3 type  1   force =    -0.00000000    0.00000004    0.01448511
     atom    4 type  1   force =     0.00000000    0.00000004    0.01440878
     atom    5 type  2   force =     0.00011199    0.00000005   -0.01800231
     atom    6 type  2   force =    -0.00011199    0.00000005   -0.01800231
     atom    7 type  1   force =     0.00005898   -0.00577904   -0.00150277
     atom    8 type  1   force =    -0.00005898   -0.00577904   -0.00150277
     atom    9 type  2   force =    -0.00000000   -0.00000005    0.02249108
     atom   10 type  2   force =     0.00000000   -0.00000005    0.02152944
     atom   11 type  1   force =     0.00005898    0.00577903   -0.00150274
     atom   12 type  1   force =    -0.00005898    0.00577903   -0.00150274
     atom   13 type  1   force =    -0.00000000    0.00000000   -0.00118968
     atom   14 type  1   force =     0.00000000    0.00000000   -0.00121635
     atom   15 type  1   force =    -0.00000000   -0.00000000    0.00056438
     atom   16 type  1   force =     0.00000000   -0.00000000    0.00046689
     atom   17 type  2   force =     0.00000000    0.00000000   -0.00048989
     atom   18 type  2   force =    -0.00000000    0.00000000   -0.00048989
     atom   19 type  1   force =     0.00000619   -0.00037501   -0.00018379
     atom   20 type  1   force =    -0.00000619   -0.00037501   -0.00018379
     atom   21 type  2   force =     0.00001902   -0.00000000   -0.00049057
     atom   22 type  2   force =    -0.00001902   -0.00000000   -0.00049057
     atom   23 type  1   force =     0.00000619    0.00037501   -0.00018379
     atom   24 type  1   force =    -0.00000619    0.00037501   -0.00018379
     atom   25 type  1   force =     0.00000000   -0.00000000   -0.00093255
     atom   26 type  1   force =    -0.00000000   -0.00000000   -0.00083503
     atom   27 type  1   force =     0.00000000    0.00000000    0.00082278
     atom   28 type  1   force =    -0.00000000    0.00000000    0.00084945
     atom   29 type  2   force =     0.00011200    0.00000005    0.01703453
     atom   30 type  2   force =    -0.00011200    0.00000005    0.01703453
     atom   31 type  1   force =     0.00005899   -0.00578216    0.00113503
     atom   32 type  1   force =    -0.00005899   -0.00578215    0.00113503
     atom   33 type  2   force =     0.00000000   -0.00000004   -0.02348370
     atom   34 type  2   force =    -0.00000000   -0.00000004   -0.02252171
     atom   35 type  1   force =     0.00005899    0.00578214    0.00113500
     atom   36 type  1   force =    -0.00005899    0.00578214    0.00113500
     atom   37 type  1   force =     0.00000000    0.00000004   -0.01485545
     atom   38 type  1   force =    -0.00000000    0.00000004   -0.01477920
     atom   39 type  1   force =     0.00000000   -0.00000005   -0.05680311
     atom   40 type  1   force =    -0.00000000   -0.00000005   -0.05455574
 

     Forces acting on atoms (cartesian axes, Ry/au):

     atom    1 type  1   force =     0.00000000    0.00000000   -0.00929175
     atom    2 type  1   force =     0.00000000    0.00000000   -0.01028835
     atom    3 type  1   force =     0.00000000    0.00000000   -0.00649781
     atom    4 type  1   force =     0.00000000    0.00000000   -0.00639044
     atom    5 type  2   force =    -0.00021165   -0.00000000    0.00151002
     atom    6 type  2   force =     0.00021165    0.00000000    0.00151002
     atom    7 type  1   force =    -0.00043226    0.01342045    0.00187976
     atom    8 type  1   force =     0.00043226    0.01342045    0.00187976
     atom    9 type  2   force =     0.00000000    0.00000000    0.00560558
     atom   10 type  2   force =     0.00000000    0.00000000    0.00815118
     atom   11 type  1   force =    -0.00043226   -0.01342045    0.00187976
     atom   12 type  1   force =     0.00043226   -0.01342045    0.00187976
     atom   13 type  1   force =     0.00000000    0.00000000   -0.00228955
     atom   14 type  1   force =     0.00000000    0.00000000   -0.00258862
     atom   15 type  1   force =     0.00000000    0.00000000    0.00156910
     atom   16 type  1   force =     0.00000000    0.00000000   -0.00663925
     atom   17 type  2   force =     0.00000000    0.00000000    0.00000000
     atom   18 type  2   force =     0.00000000    0.00000000    0.00000000
     atom   19 type  1   force =     0.00174023   -0.02210477    0.00000000
     atom   20 type  1   force =    -0.00174023   -0.02210477    0.00000000
     atom   21 type  2   force =     0.00360002    0.00000000    0.00000000
     atom   22 type  2   force =    -0.00360002    0.00000000    0.00000000
     atom   23 type  1   force =     0.00174023    0.02210477    0.00000000
     atom   24 type  1   force =    -0.00174023    0.02210477    0.00000000
     atom   25 type  1   force =     0.00000000    0.00000000   -0.00156910
     atom   26 type  1   force =     0.00000000    0.00000000    0.00663925
     atom   27 type  1   force =     0.00000000    0.00000000    0.00228955
     atom   28 type  1   force =     0.00000000    0.00000000    0.00258862
     atom   29 type  2   force =    -0.00021165    0.00000000   -0.00151002
     atom   30 type  2   force =     0.00021165   -0.00000000   -0.00151002
     atom   31 type  1   force =    -0.00043226    0.01342045   -0.00187976
     atom   32 type  1   force =     0.00043226    0.01342045   -0.00187976
     atom   33 type  2   force =     0.00000000    0.00000000   -0.00560558
     atom   34 type  2   force =     0.00000000    0.00000000   -0.00815118
     atom   35 type  1   force =    -0.00043226   -0.01342045   -0.00187976
     atom   36 type  1   force =     0.00043226   -0.01342045   -0.00187976
     atom   37 type  1   force =     0.00000000    0.00000000    0.00649781
     atom   38 type  1   force =     0.00000000    0.00000000    0.00639044
     atom   39 type  1   force =     0.00000000    0.00000000    0.00929175
     atom   40 type  1   force =     0.00000000    0.00000000    0.01028835
     The non-local contrib.  to forces
     atom    1 type  1   force =     0.00000000    0.00000000    1.40241976
     atom    2 type  1   force =     0.00000000    0.00000000    1.42650123
     atom    3 type  1   force =     0.00000000    0.00000000    1.09845576
     atom    4 type  1   force =     0.00000000    0.00000000    1.10058724
     atom    5 type  2   force =    -0.00014304    0.00000000   -0.07211036
     atom    6 type  2   force =     0.00014304    0.00000000   -0.07211036
     atom    7 type  1   force =     0.00343647    0.05732937   -0.15780624
     atom    8 type  1   force =    -0.00343647    0.05732937   -0.15780624
     atom    9 type  2   force =     0.00000000    0.00000000   -0.11398311
     atom   10 type  2   force =     0.00000000    0.00000000   -0.10320709
     atom   11 type  1   force =     0.00343647   -0.05732937   -0.15780624
     atom   12 type  1   force =    -0.00343647   -0.05732937   -0.15780624
     atom   13 type  1   force =     0.00000000    0.00000000    0.04219574
     atom   14 type  1   force =     0.00000000    0.00000000    0.03981290
     atom   15 type  1   force =     0.00000000    0.00000000    0.26198041
     atom   16 type  1   force =     0.00000000    0.00000000    0.24878117
     atom   17 type  2   force =     0.00000000    0.00000000    0.00000000
     atom   18 type  2   force =     0.00000000    0.00000000    0.00000000
     atom   19 type  1   force =    -0.01761650   -0.01899012    0.00000000
     atom   20 type  1   force =     0.01761650   -0.01899012    0.00000000
     atom   21 type  2   force =     0.01937672    0.00000000    0.00000000
     atom   22 type  2   force =    -0.01937672    0.00000000    0.00000000
     atom   23 type  1   force =    -0.01761650    0.01899012    0.00000000
     atom   24 type  1   force =     0.01761650    0.01899012    0.00000000
     atom   25 type  1   force =     0.00000000    0.00000000   -0.26198041
     atom   26 type  1   force =     0.00000000    0.00000000   -0.24878117
     atom   27 type  1   force =     0.00000000    0.00000000   -0.04219574
     atom   28 type  1   force =     0.00000000    0.00000000   -0.03981290
     atom   29 type  2   force =    -0.00014304   -0.00000000    0.07211036
     atom   30 type  2   force =     0.00014304    0.00000000    0.07211036
     atom   31 type  1   force =     0.00343647    0.05732937    0.15780624
     atom   32 type  1   force =    -0.00343647    0.05732937    0.15780624
     atom   33 type  2   force =     0.00000000    0.00000000    0.11398311
     atom   34 type  2   force =     0.00000000    0.00000000    0.10320709
     atom   35 type  1   force =     0.00343647   -0.05732937    0.15780624
     atom   36 type  1   force =    -0.00343647   -0.05732937    0.15780624
     atom   37 type  1   force =     0.00000000    0.00000000   -1.09845576
     atom   38 type  1   force =     0.00000000    0.00000000   -1.10058724
     atom   39 type  1   force =     0.00000000    0.00000000   -1.40241976
     atom   40 type  1   force =     0.00000000    0.00000000   -1.42650123
     The ionic contribution  to forces
     atom    1 type  1   force =     0.00000000    0.00000019 -102.54785337
     atom    2 type  1   force =     0.00000000    0.00000019 -102.59409420
     atom    3 type  1   force =    -0.00000000   -0.00000036  -94.86978817
     atom    4 type  1   force =    -0.00000000   -0.00000036  -94.90000457
     atom    5 type  2   force =     0.00759121   -0.00000239 -175.05733292
     atom    6 type  2   force =    -0.00759121   -0.00000239 -175.05733292
     atom    7 type  1   force =     0.00999229   -1.28866324  -62.09052697
     atom    8 type  1   force =    -0.00999229   -1.28866324  -62.09052697
     atom    9 type  2   force =    -0.00000000    0.00000298 -174.40018007
     atom   10 type  2   force =     0.00000000    0.00000300 -172.64949739
     atom   11 type  1   force =     0.00999228    1.28866379  -62.09052427
     atom   12 type  1   force =    -0.00999228    1.28866379  -62.09052427
     atom   13 type  1   force =     0.00000000   -0.00000160  -38.26396679
     atom   14 type  1   force =    -0.00000000   -0.00000161  -38.18134058
     atom   15 type  1   force =    -0.00000000    0.00000988  -27.88300285
     atom   16 type  1   force =     0.00000000    0.00001047  -27.48364172
     atom   17 type  2   force =    -0.00000000    0.00001982   -0.00027424
     atom   18 type  2   force =     0.00000000    0.00001864   -0.00027288
     atom   19 type  1   force =     0.19464777    1.04338895    0.00000868
     atom   20 type  1   force =    -0.19464777    1.04338895    0.00000868
     atom   21 type  2   force =    -0.36968897    0.00011216    0.00000852
     atom   22 type  2   force =     0.36968897    0.00011216    0.00000852
     atom   23 type  1   force =     0.19464857   -1.04353943    0.00000868
     atom   24 type  1   force =    -0.19464857   -1.04353943    0.00000868
     atom   25 type  1   force =     0.00000000    0.00000988   27.88313538
     atom   26 type  1   force =     0.00000000    0.00001047   27.48370634
     atom   27 type  1   force =    -0.00000000   -0.00000160   38.26414127
     atom   28 type  1   force =    -0.00000000   -0.00000161   38.18151557
     atom   29 type  2   force =     0.00759076   -0.00000239  175.05740712
     atom   30 type  2   force =    -0.00759076   -0.00000239  175.05740712
     atom   31 type  1   force =     0.00999058   -1.28866257   62.09055353
     atom   32 type  1   force =    -0.00999058   -1.28866257   62.09055353
     atom   33 type  2   force =    -0.00000000    0.00000298  174.39954827
     atom   34 type  2   force =    -0.00000000    0.00000300  172.64889291
     atom   35 type  1   force =     0.00999057    1.28866311   62.09055083
     atom   36 type  1   force =    -0.00999057    1.28866311   62.09055083
     atom   37 type  1   force =     0.00000000   -0.00000036   94.86967502
     atom   38 type  1   force =     0.00000000   -0.00000036   94.89989233
     atom   39 type  1   force =    -0.00000000    0.00000019  102.54843146
     atom   40 type  1   force =    -0.00000000    0.00000019  102.59467186
     The local contribution  to forces
     atom    1 type  1   force =    -0.00000000    0.00000000  101.09065078
     atom    2 type  1   force =     0.00000000    0.00000000  101.11439412
     atom    3 type  1   force =    -0.00000000    0.00000000   93.75997738
     atom    4 type  1   force =     0.00000000   -0.00000000   93.78826105
     atom    5 type  2   force =    -0.00778866    0.00000000  175.14226189
     atom    6 type  2   force =     0.00778866   -0.00000000  175.14226189
     atom    7 type  1   force =    -0.01391201    1.25140310   62.24741892
     atom    8 type  1   force =     0.01391201    1.25140310   62.24741892
     atom    9 type  2   force =    -0.00000000    0.00000000  174.49059272
     atom   10 type  2   force =    -0.00000000    0.00000000  172.73261571
     atom   11 type  1   force =    -0.01391201   -1.25140310   62.24741892
     atom   12 type  1   force =     0.01391201   -1.25140310   62.24741892
     atom   13 type  1   force =    -0.00000000    0.00000000   38.21992511
     atom   14 type  1   force =     0.00000000    0.00000000   38.13936120
     atom   15 type  1   force =    -0.00000000    0.00000000   27.62425342
     atom   16 type  1   force =     0.00000000    0.00000000   27.22931328
     atom   17 type  2   force =    -0.00000000    0.00000000   -0.00597954
     atom   18 type  2   force =    -0.00000000    0.00000000   -0.00596678
     atom   19 type  1   force =    -0.17544961   -1.04699766   -0.00250235
     atom   20 type  1   force =     0.17544961   -1.04699766   -0.00250235
     atom   21 type  2   force =     0.35388492   -0.00000000   -0.00617846
     atom   22 type  2   force =    -0.35388492   -0.00000000   -0.00617846
     atom   23 type  1   force =    -0.17545049    1.04663347   -0.00250235
     atom   24 type  1   force =     0.17545049    1.04663347   -0.00250235
     atom   25 type  1   force =    -0.00000000    0.00000000  -27.62606708
     atom   26 type  1   force =     0.00000000    0.00000000  -27.23117819
     atom   27 type  1   force =    -0.00000000    0.00000000  -38.22169619
     atom   28 type  1   force =     0.00000000   -0.00000000  -38.14113092
     atom   29 type  2   force =    -0.00778670    0.00000000 -175.15476127
     atom   30 type  2   force =     0.00778670    0.00000000 -175.15476127
     atom   31 type  1   force =    -0.01390847    1.25145185  -62.25238746
     atom   32 type  1   force =     0.01390847    1.25145185  -62.25238746
     atom   33 type  2   force =    -0.00000000    0.00000000 -174.50232149
     atom   34 type  2   force =     0.00000000    0.00000000 -172.74442888
     atom   35 type  1   force =    -0.01390847   -1.25145185  -62.25238746
     atom   36 type  1   force =     0.01390847   -1.25145185  -62.25238746
     atom   37 type  1   force =     0.00000000    0.00000000  -93.76199451
     atom   38 type  1   force =     0.00000000    0.00000000  -93.79027757
     atom   39 type  1   force =    -0.00000000    0.00000000 -101.09204268
     atom   40 type  1   force =     0.00000000    0.00000000 -101.11579488
     The core correction contribution to forces
     atom    1 type  1   force =    -0.00000000   -0.00000000   -0.01151593
     atom    2 type  1   force =    -0.00000000    0.00000000   -0.01185507
     atom    3 type  1   force =    -0.00000000   -0.00000000   -0.01088073
     atom    4 type  1   force =     0.00000000    0.00000000   -0.01089415
     atom    5 type  2   force =     0.00000000    0.00000000    0.00000000
     atom    6 type  2   force =     0.00000000    0.00000000    0.00000000
     atom    7 type  1   force =    -0.00001241   -0.00088497    0.00163778
     atom    8 type  1   force =     0.00001241   -0.00088497    0.00163778
     atom    9 type  2   force =     0.00000000    0.00000000    0.00000000
     atom   10 type  2   force =     0.00000000    0.00000000    0.00000000
     atom   11 type  1   force =    -0.00001242    0.00088497    0.00163778
     atom   12 type  1   force =     0.00001242    0.00088497    0.00163778
     atom   13 type  1   force =     0.00000000    0.00000000   -0.00022615
     atom   14 type  1   force =     0.00000000   -0.00000000   -0.00018501
     atom   15 type  1   force =    -0.00000000    0.00000000   -0.00325282
     atom   16 type  1   force =    -0.00000000   -0.00000000   -0.00264546
     atom   17 type  2   force =     0.00000000    0.00000000    0.00000000
     atom   18 type  2   force =     0.00000000    0.00000000    0.00000000
     atom   19 type  1   force =     0.00014188    0.00061004   -0.00000204
     atom   20 type  1   force =    -0.00014188    0.00061004   -0.00000204
     atom   21 type  2   force =     0.00000000    0.00000000    0.00000000
     atom   22 type  2   force =     0.00000000    0.00000000    0.00000000
     atom   23 type  1   force =     0.00014187   -0.00061064   -0.00000204
     atom   24 type  1   force =    -0.00014187   -0.00061064   -0.00000204
     atom   25 type  1   force =    -0.00000000   -0.00000000    0.00325080
     atom   26 type  1   force =     0.00000000    0.00000000    0.00264325
     atom   27 type  1   force =     0.00000000   -0.00000000    0.00022386
     atom   28 type  1   force =     0.00000000   -0.00000000    0.00018274
     atom   29 type  2   force =     0.00000000    0.00000000    0.00000000
     atom   30 type  2   force =     0.00000000    0.00000000    0.00000000
     atom   31 type  1   force =    -0.00001236   -0.00088499   -0.00164036
     atom   32 type  1   force =     0.00001236   -0.00088499   -0.00164036
     atom   33 type  2   force =     0.00000000    0.00000000    0.00000000
     atom   34 type  2   force =     0.00000000    0.00000000    0.00000000
     atom   35 type  1   force =    -0.00001236    0.00088499   -0.00164036
     atom   36 type  1   force =     0.00001236    0.00088499   -0.00164036
     atom   37 type  1   force =    -0.00000000    0.00000000    0.01087831
     atom   38 type  1   force =     0.00000000   -0.00000000    0.01089174
     atom   39 type  1   force =     0.00000000   -0.00000000    0.01151436
     atom   40 type  1   force =     0.00000000    0.00000000    0.01185325
     The Hubbard contrib.    to forces
     atom    1 type  1   force =     0.00000000    0.00000000    0.00000000
     atom    2 type  1   force =     0.00000000    0.00000000    0.00000000
     atom    3 type  1   force =     0.00000000    0.00000000    0.00000000
     atom    4 type  1   force =     0.00000000    0.00000000    0.00000000
     atom    5 type  2   force =     0.00000000    0.00000000    0.00000000
     atom    6 type  2   force =     0.00000000    0.00000000    0.00000000
     atom    7 type  1   force =     0.00000000    0.00000000    0.00000000
     atom    8 type  1   force =     0.00000000    0.00000000    0.00000000
     atom    9 type  2   force =     0.00000000    0.00000000    0.00000000
     atom   10 type  2   force =     0.00000000    0.00000000    0.00000000
     atom   11 type  1   force =     0.00000000    0.00000000    0.00000000
     atom   12 type  1   force =     0.00000000    0.00000000    0.00000000
     atom   13 type  1   force =     0.00000000    0.00000000    0.00000000
     atom   14 type  1   force =     0.00000000    0.00000000    0.00000000
     atom   15 type  1   force =     0.00000000    0.00000000    0.00000000
     atom   16 type  1   force =     0.00000000    0.00000000    0.00000000
     atom   17 type  2   force =     0.00000000    0.00000000    0.00000000
     atom   18 type  2   force =     0.00000000    0.00000000    0.00000000
     atom   19 type  1   force =     0.00000000    0.00000000    0.00000000
     atom   20 type  1   force =     0.00000000    0.00000000    0.00000000
     atom   21 type  2   force =     0.00000000    0.00000000    0.00000000
     atom   22 type  2   force =     0.00000000    0.00000000    0.00000000
     atom   23 type  1   force =     0.00000000    0.00000000    0.00000000
     atom   24 type  1   force =     0.00000000    0.00000000    0.00000000
     atom   25 type  1   force =     0.00000000    0.00000000    0.00000000
     atom   26 type  1   force =     0.00000000    0.00000000    0.00000000
     atom   27 type  1   force =     0.00000000    0.00000000    0.00000000
     atom   28 type  1   force =     0.00000000    0.00000000    0.00000000
     atom   29 type  2   force =     0.00000000    0.00000000    0.00000000
     atom   30 type  2   force =     0.00000000    0.00000000    0.00000000
     atom   31 type  1   force =     0.00000000    0.00000000    0.00000000
     atom   32 type  1   force =     0.00000000    0.00000000    0.00000000
     atom   33 type  2   force =     0.00000000    0.00000000    0.00000000
     atom   34 type  2   force =     0.00000000    0.00000000    0.00000000
     atom   35 type  1   force =     0.00000000    0.00000000    0.00000000
     atom   36 type  1   force =     0.00000000    0.00000000    0.00000000
     atom   37 type  1   force =     0.00000000    0.00000000    0.00000000
     atom   38 type  1   force =     0.00000000    0.00000000    0.00000000
     atom   39 type  1   force =     0.00000000    0.00000000    0.00000000
     atom   40 type  1   force =     0.00000000    0.00000000    0.00000000
     The SCF correction term to forces
     atom    1 type  1   force =     0.00000000    0.00000002   -0.00001412
     atom    2 type  1   force =    -0.00000000    0.00000002   -0.00001346
     atom    3 type  1   force =     0.00000000   -0.00000001   -0.00001510
     atom    4 type  1   force =    -0.00000000   -0.00000001   -0.00001593
     atom    5 type  2   force =     0.00001618    0.00000003   -0.00004638
     atom    6 type  2   force =    -0.00001618    0.00000003   -0.00004638
     atom    7 type  1   force =     0.00000355   -0.00000545   -0.00001482
     atom    8 type  1   force =    -0.00000355   -0.00000545   -0.00001482
     atom    9 type  2   force =     0.00000000   -0.00000002   -0.00004316
     atom   10 type  2   force =    -0.00000000   -0.00000002   -0.00004519
     atom   11 type  1   force =     0.00000355    0.00000544   -0.00001492
     atom   12 type  1   force =    -0.00000355    0.00000544   -0.00001492
     atom   13 type  1   force =     0.00000000    0.00000011   -0.00001055
     atom   14 type  1   force =    -0.00000000    0.00000011   -0.00000257
     atom   15 type  1   force =     0.00000000   -0.00000016    0.00001125
     atom   16 type  1   force =    -0.00000000   -0.00000017    0.00001294
     atom   17 type  2   force =    -0.00000000    0.00000065    0.00006523
     atom   18 type  2   force =     0.00000000    0.00000065    0.00006492
     atom   19 type  1   force =     0.00001053    0.00000147    0.00002280
     atom   20 type  1   force =    -0.00001053    0.00000147    0.00002280
     atom   21 type  2   force =     0.00000834   -0.00000067    0.00006232
     atom   22 type  2   force =    -0.00000834   -0.00000067    0.00006232
     atom   23 type  1   force =     0.00001053   -0.00000130    0.00002280
     atom   24 type  1   force =    -0.00001053   -0.00000130    0.00002280
     atom   25 type  1   force =    -0.00000000   -0.00000016    0.00000944
     atom   26 type  1   force =     0.00000000   -0.00000017    0.00001040
     atom   27 type  1   force =    -0.00000000    0.00000011    0.00001079
     atom   28 type  1   force =     0.00000000    0.00000011    0.00000289
     atom   29 type  2   force =     0.00001599    0.00000003   -0.00004085
     atom   30 type  2   force =    -0.00001599    0.00000003   -0.00004085
     atom   31 type  1   force =     0.00000342   -0.00000986   -0.00001799
     atom   32 type  1   force =    -0.00000342   -0.00000986   -0.00001799
     atom   33 type  2   force =    -0.00000000   -0.00000002   -0.00005987
     atom   34 type  2   force =     0.00000000   -0.00000002   -0.00005629
     atom   35 type  1   force =     0.00000342    0.00000985   -0.00001789
     atom   36 type  1   force =    -0.00000342    0.00000985   -0.00001789
     atom   37 type  1   force =    -0.00000000   -0.00000002   -0.00001775
     atom   38 type  1   force =     0.00000000   -0.00000002   -0.00001678
     atom   39 type  1   force =    -0.00000000    0.00000002   -0.00000511
     atom   40 type  1   force =     0.00000000    0.00000002   -0.00000591

     Total force =     0.065846     Total SCF correction =     0.000208

     BFGS Geometry Optimization
     Energy error            =      0.0E+00 Ry
     Gradient error          =      2.2E-02 Ry/Bohr

     number of scf cycles    =   1
     number of bfgs steps    =   0

[...]
     atom   37 type  1   force =    -0.00000000   -0.00000038   94.80740485
     atom   38 type  1   force =    -0.00000000   -0.00000038   94.82168289
     atom   39 type  1   force =     0.00000000    0.00000019  102.32663554
     atom   40 type  1   force =     0.00000000    0.00000019  102.34671338
     The local contribution  to forces
     atom    1 type  1   force =    -0.00000000    0.00000000  100.87182759
     atom    2 type  1   force =     0.00000000    0.00000000  100.87849553
     atom    3 type  1   force =    -0.00000000    0.00000000   93.70028456
     atom    4 type  1   force =     0.00000000    0.00000000   93.71368568
     atom    5 type  2   force =    -0.00511934   -0.00000000  175.18912501
     atom    6 type  2   force =     0.00511934    0.00000000  175.18912501
     atom    7 type  1   force =    -0.01503894    1.56699518   61.91115856
     atom    8 type  1   force =     0.01503894    1.56699518   61.91115856
     atom    9 type  2   force =    -0.00000000    0.00000000  174.10620796
     atom   10 type  2   force =     0.00000000    0.00000000  172.98541843
     atom   11 type  1   force =    -0.01503894   -1.56699518   61.91115856
     atom   12 type  1   force =     0.01503894   -1.56699518   61.91115856
     atom   13 type  1   force =     0.00000000   -0.00000000   38.20762586
     atom   14 type  1   force =     0.00000000    0.00000000   38.17312645
     atom   15 type  1   force =    -0.00000000    0.00000000   27.48283443
     atom   16 type  1   force =     0.00000000    0.00000000   27.25503047
     atom   17 type  2   force =    -0.00000000    0.00000000   -0.00599527
     atom   18 type  2   force =    -0.00000000    0.00000000   -0.00599088
     atom   19 type  1   force =    -0.07197190   -1.63323699   -0.00250199
     atom   20 type  1   force =     0.07197190   -1.63323699   -0.00250199
     atom   21 type  2   force =     0.27741452   -0.00000000   -0.00616377
     atom   22 type  2   force =    -0.27741452   -0.00000000   -0.00616377
     atom   23 type  1   force =    -0.07197211    1.63286896   -0.00250199
     atom   24 type  1   force =     0.07197211    1.63286896   -0.00250199
     atom   25 type  1   force =    -0.00000000    0.00000000  -27.48465978
     atom   26 type  1   force =     0.00000000    0.00000000  -27.25688833
     atom   27 type  1   force =    -0.00000000    0.00000000  -38.20940038
     atom   28 type  1   force =     0.00000000   -0.00000000  -38.17490067
     atom   29 type  2   force =    -0.00511872   -0.00000000 -175.20159895
     atom   30 type  2   force =     0.00511872    0.00000000 -175.20159895
     atom   31 type  1   force =    -0.01503707    1.56704373  -61.91612234
     atom   32 type  1   force =     0.01503707    1.56704373  -61.91612234
     atom   33 type  2   force =    -0.00000000    0.00000000 -174.11797438
     atom   34 type  2   force =     0.00000000    0.00000000 -172.99723644
     atom   35 type  1   force =    -0.01503707   -1.56704373  -61.91612234
     atom   36 type  1   force =     0.01503707   -1.56704373  -61.91612234
     atom   37 type  1   force =     0.00000000   -0.00000000  -93.70229448
     atom   38 type  1   force =     0.00000000    0.00000000  -93.71569536
     atom   39 type  1   force =    -0.00000000    0.00000000 -100.87322242
     atom   40 type  1   force =     0.00000000    0.00000000 -100.87989647
     The core correction contribution to forces
     atom    1 type  1   force =    -0.00000000    0.00000000   -0.01171566
     atom    2 type  1   force =     0.00000000    0.00000000   -0.01193668
     atom    3 type  1   force =    -0.00000000    0.00000000   -0.01094106
     atom    4 type  1   force =    -0.00000000   -0.00000000   -0.01094779
     atom    5 type  2   force =     0.00000000    0.00000000    0.00000000
     atom    6 type  2   force =     0.00000000    0.00000000    0.00000000
     atom    7 type  1   force =    -0.00001184   -0.00073098    0.00190795
     atom    8 type  1   force =     0.00001184   -0.00073098    0.00190795
     atom    9 type  2   force =     0.00000000    0.00000000    0.00000000
     atom   10 type  2   force =     0.00000000    0.00000000    0.00000000
     atom   11 type  1   force =    -0.00001184    0.00073098    0.00190795
     atom   12 type  1   force =     0.00001184    0.00073098    0.00190795
     atom   13 type  1   force =     0.00000000    0.00000000   -0.00026819
     atom   14 type  1   force =    -0.00000000   -0.00000000   -0.00025607
     atom   15 type  1   force =    -0.00000000   -0.00000000   -0.00309475
     atom   16 type  1   force =    -0.00000000   -0.00000000   -0.00271501
     atom   17 type  2   force =     0.00000000    0.00000000    0.00000000
     atom   18 type  2   force =     0.00000000    0.00000000    0.00000000
     atom   19 type  1   force =     0.00009817    0.00029260   -0.00000201
     atom   20 type  1   force =    -0.00009817    0.00029260   -0.00000201
     atom   21 type  2   force =     0.00000000    0.00000000    0.00000000
     atom   22 type  2   force =     0.00000000    0.00000000    0.00000000
     atom   23 type  1   force =     0.00009816   -0.00029321   -0.00000201
     atom   24 type  1   force =    -0.00009816   -0.00029321   -0.00000201
     atom   25 type  1   force =     0.00000000    0.00000000    0.00309269
     atom   26 type  1   force =     0.00000000   -0.00000000    0.00271280
     atom   27 type  1   force =    -0.00000000   -0.00000000    0.00026587
     atom   28 type  1   force =     0.00000000   -0.00000000    0.00025376
     atom   29 type  2   force =     0.00000000    0.00000000    0.00000000
     atom   30 type  2   force =     0.00000000    0.00000000    0.00000000
     atom   31 type  1   force =    -0.00001181   -0.00073098   -0.00191051
     atom   32 type  1   force =     0.00001181   -0.00073098   -0.00191051
     atom   33 type  2   force =     0.00000000    0.00000000    0.00000000
     atom   34 type  2   force =     0.00000000    0.00000000    0.00000000
     atom   35 type  1   force =    -0.00001181    0.00073098   -0.00191051
     atom   36 type  1   force =     0.00001181    0.00073098   -0.00191051
     atom   37 type  1   force =    -0.00000000    0.00000000    0.01093866
     atom   38 type  1   force =     0.00000000    0.00000000    0.01094539
     atom   39 type  1   force =     0.00000000    0.00000000    0.01171402
     atom   40 type  1   force =    -0.00000000    0.00000000    0.01193485
     The Hubbard contrib.    to forces
     atom    1 type  1   force =     0.00000000    0.00000000    0.00000000
     atom    2 type  1   force =     0.00000000    0.00000000    0.00000000
     atom    3 type  1   force =     0.00000000    0.00000000    0.00000000
     atom    4 type  1   force =     0.00000000    0.00000000    0.00000000
     atom    5 type  2   force =     0.00000000    0.00000000    0.00000000
     atom    6 type  2   force =     0.00000000    0.00000000    0.00000000
     atom    7 type  1   force =     0.00000000    0.00000000    0.00000000
     atom    8 type  1   force =     0.00000000    0.00000000    0.00000000
     atom    9 type  2   force =     0.00000000    0.00000000    0.00000000
     atom   10 type  2   force =     0.00000000    0.00000000    0.00000000
     atom   11 type  1   force =     0.00000000    0.00000000    0.00000000
     atom   12 type  1   force =     0.00000000    0.00000000    0.00000000
     atom   13 type  1   force =     0.00000000    0.00000000    0.00000000
     atom   14 type  1   force =     0.00000000    0.00000000    0.00000000
     atom   15 type  1   force =     0.00000000    0.00000000    0.00000000
     atom   16 type  1   force =     0.00000000    0.00000000    0.00000000
     atom   17 type  2   force =     0.00000000    0.00000000    0.00000000
     atom   18 type  2   force =     0.00000000    0.00000000    0.00000000
     atom   19 type  1   force =     0.00000000    0.00000000    0.00000000
     atom   20 type  1   force =     0.00000000    0.00000000    0.00000000
     atom   21 type  2   force =     0.00000000    0.00000000    0.00000000
     atom   22 type  2   force =     0.00000000    0.00000000    0.00000000
     atom   23 type  1   force =     0.00000000    0.00000000    0.00000000
     atom   24 type  1   force =     0.00000000    0.00000000    0.00000000
     atom   25 type  1   force =     0.00000000    0.00000000    0.00000000
     atom   26 type  1   force =     0.00000000    0.00000000    0.00000000
     atom   27 type  1   force =     0.00000000    0.00000000    0.00000000
     atom   28 type  1   force =     0.00000000    0.00000000    0.00000000
     atom   29 type  2   force =     0.00000000    0.00000000    0.00000000
     atom   30 type  2   force =     0.00000000    0.00000000    0.00000000
     atom   31 type  1   force =     0.00000000    0.00000000    0.00000000
     atom   32 type  1   force =     0.00000000    0.00000000    0.00000000
     atom   33 type  2   force =     0.00000000    0.00000000    0.00000000
     atom   34 type  2   force =     0.00000000    0.00000000    0.00000000
     atom   35 type  1   force =     0.00000000    0.00000000    0.00000000
     atom   36 type  1   force =     0.00000000    0.00000000    0.00000000
     atom   37 type  1   force =     0.00000000    0.00000000    0.00000000
     atom   38 type  1   force =     0.00000000    0.00000000    0.00000000
     atom   39 type  1   force =     0.00000000    0.00000000    0.00000000
     atom   40 type  1   force =     0.00000000    0.00000000    0.00000000
     The SCF correction term to forces
     atom    1 type  1   force =    -0.00000000    0.00000000   -0.00000117
     atom    2 type  1   force =     0.00000000    0.00000000   -0.00000151
     atom    3 type  1   force =    -0.00000000   -0.00000000   -0.00000114
     atom    4 type  1   force =     0.00000000   -0.00000000   -0.00000126
     atom    5 type  2   force =     0.00000023   -0.00000000   -0.00000284
     atom    6 type  2   force =    -0.00000023   -0.00000000   -0.00000284
     atom    7 type  1   force =     0.00000044    0.00000010   -0.00000116
     atom    8 type  1   force =    -0.00000044    0.00000010   -0.00000116
     atom    9 type  2   force =     0.00000000    0.00000000   -0.00000262
     atom   10 type  2   force =    -0.00000000    0.00000000   -0.00000306
     atom   11 type  1   force =     0.00000044   -0.00000010   -0.00000116
     atom   12 type  1   force =    -0.00000044   -0.00000010   -0.00000116
     atom   13 type  1   force =     0.00000000   -0.00000000   -0.00000024
     atom   14 type  1   force =    -0.00000000   -0.00000000   -0.00000120
     atom   15 type  1   force =     0.00000000    0.00000000   -0.00000061
     atom   16 type  1   force =     0.00000000    0.00000000   -0.00000110
     atom   17 type  2   force =    -0.00000000   -0.00000000   -0.00000000
     atom   18 type  2   force =     0.00000000   -0.00000000   -0.00000000
     atom   19 type  1   force =    -0.00000072   -0.00000025   -0.00000000
     atom   20 type  1   force =     0.00000072   -0.00000025   -0.00000000
     atom   21 type  2   force =    -0.00000016    0.00000000   -0.00000001
     atom   22 type  2   force =     0.00000016    0.00000000   -0.00000001
     atom   23 type  1   force =    -0.00000072    0.00000025   -0.00000000
     atom   24 type  1   force =     0.00000072    0.00000025   -0.00000000
     atom   25 type  1   force =     0.00000000    0.00000000    0.00000060
     atom   26 type  1   force =     0.00000000    0.00000000    0.00000108
     atom   27 type  1   force =    -0.00000000   -0.00000000    0.00000024
     atom   28 type  1   force =    -0.00000000   -0.00000000    0.00000119
     atom   29 type  2   force =     0.00000021   -0.00000000    0.00000283
     atom   30 type  2   force =    -0.00000021   -0.00000000    0.00000283
     atom   31 type  1   force =     0.00000042    0.00000008    0.00000115
     atom   32 type  1   force =    -0.00000042    0.00000008    0.00000115
     atom   33 type  2   force =     0.00000000    0.00000000    0.00000262
     atom   34 type  2   force =     0.00000000    0.00000000    0.00000305
     atom   35 type  1   force =     0.00000042   -0.00000008    0.00000115
     atom   36 type  1   force =    -0.00000042   -0.00000008    0.00000115
     atom   37 type  1   force =    -0.00000000    0.00000000    0.00000114
     atom   38 type  1   force =    -0.00000000   -0.00000000    0.00000126
     atom   39 type  1   force =    -0.00000000    0.00000000    0.00000117
     atom   40 type  1   force =     0.00000000    0.00000000    0.00000154

     Total force =     0.000188     Total SCF correction =     0.000010
     Energy error            =      1.1E-07 Ry
     Gradient error          =      8.7E-05 Ry/Bohr

     bfgs converged in  16 scf cycles and  15 bfgs steps
     (criteria: energy <  1.0E-04 Ry, force <  1.0E-04 Ry/Bohr)

     End of BFGS Geometry Optimization

     Final energy             =   -3427.7157924938 Ry

     File /storage/home/mgm6007/ixd4/Maria/Strain0_Files/RuO2-110-0-/RuO2-110-0-.bfgs deleted, as requested
Begin final coordinates

ATOMIC_POSITIONS (crystal)
O             0.0000000000        0.5000000000        0.2790939805
O             0.5000000000        0.5000000000        0.2794913984
O             0.0000000000        0.0000000000        0.3120755007
O             0.5000000000        0.0000000000        0.3120615196
Ru            0.2500471981       -0.0000000000        0.3582723334
Ru            0.7499528019        0.0000000000        0.3582723334
O             0.2502941372        0.3105112665        0.3623047056
O             0.7497058628        0.3105112665        0.3623047056
Ru            0.0000000000        0.5000000000        0.3542494661
Ru            0.5000000000        0.5000000000        0.3545918576
O             0.2502941372        0.6894887335        0.3623047056
O             0.7497058628        0.6894887335        0.3623047056
O             0.0000000000        0.0000000000        0.4144863478
O             0.5000000000        0.0000000000        0.4144989529
O             0.0000000000        0.5000000000        0.4448892538
O             0.5000000000        0.5000000000        0.4472342363
Ru            0.0000000000        0.0000000000        0.5000010000
Ru            0.5000000000        0.0000000000        0.5000010000
O             0.2496237796        0.1899548222        0.5000010000
O             0.7503762204        0.1899548222        0.5000010000
Ru            0.2481726284        0.5000000000        0.5000010000
Ru            0.7518273716        0.5000000000        0.5000010000
O             0.2496237796        0.8100461778        0.5000010000
O             0.7503762204        0.8100461778        0.5000010000
O             0.0000000000        0.5000000000        0.5551117462
O             0.5000000000        0.5000000000        0.5527667637
O             0.0000000000        0.0000000000        0.5855146522
O             0.5000000000        0.0000000000        0.5855020471
Ru            0.2500471981        0.0000000000        0.6417296666
Ru            0.7499528019       -0.0000000000        0.6417296666
O             0.2502941372        0.3105112665        0.6376972944
O             0.7497058628        0.3105112665        0.6376972944
Ru            0.0000000000        0.5000000000        0.6457525339
Ru            0.5000000000        0.5000000000        0.6454101424
O             0.2502941372        0.6894887335        0.6376972944
O             0.7497058628        0.6894887335        0.6376972944
O             0.0000000000        0.0000000000        0.6879254993
O             0.5000000000        0.0000000000        0.6879394804
O             0.0000000000        0.5000000000        0.7209070195
O             0.5000000000        0.5000000000        0.7205096016
End final coordinates



     Writing all to output data dir /storage/home/mgm6007/ixd4/Maria/Strain0_Files/RuO2-110-0-/RuO2-110-0-.save/
 
     init_run     :    527.74s CPU   1002.96s WALL (       1 calls)
     electrons    :  32611.80s CPU  67074.51s WALL (      16 calls)
     update_pot   :     20.69s CPU     20.70s WALL (      15 calls)
     forces       :     22.75s CPU     22.79s WALL (      16 calls)

     Called by init_run:
     wfcinit      :      0.52s CPU      0.52s WALL (       1 calls)
     wfcinit:atom :      0.01s CPU      0.01s WALL (       1 calls)
     wfcinit:wfcr :      0.49s CPU      0.49s WALL (       1 calls)
     potinit      :    408.54s CPU    747.19s WALL (       1 calls)
     hinit0       :    118.19s CPU    254.71s WALL (       1 calls)

     Called by electrons:
     c_bands      :    337.44s CPU    337.68s WALL (     268 calls)
     sum_band     :     80.97s CPU     81.05s WALL (     268 calls)
     v_of_rho     :     65.96s CPU     66.05s WALL (     271 calls)
     v_h          :      2.20s CPU      2.21s WALL (     271 calls)
     v_xc         :     65.55s CPU     65.64s WALL (     287 calls)
     newd         :     21.02s CPU     21.04s WALL (     271 calls)
     PAW_pot      :     22.32s CPU     22.33s WALL (     286 calls)
     mix_rho      :    180.20s CPU    180.30s WALL (     268 calls)

     Called by c_bands:
     init_us_2    :      3.56s CPU      3.57s WALL (     552 calls)
     init_us_2:cp :      3.56s CPU      3.57s WALL (     552 calls)
     cegterg      :    324.40s CPU    324.61s WALL (     268 calls)

     Called by sum_band:
     sum_band:wei :      0.11s CPU      0.12s WALL (     268 calls)
     sum_band:loo :     55.06s CPU     55.07s WALL (     268 calls)
     sum_band:buf :      0.00s CPU      0.00s WALL (     268 calls)
     sum_band:ini :      1.76s CPU      1.77s WALL (     268 calls)
     sum_band:cal :     12.08s CPU     12.09s WALL (     283 calls)
     sum_band:bec :      0.10s CPU      0.10s WALL (     283 calls)
     addusdens    :     18.98s CPU     19.00s WALL (     268 calls)
                                        0.00s GPU  (     268 calls)
     addusd:skk   :      3.06s CPU      3.07s WALL (     268 calls)
                                        0.00s GPU  (     268 calls)

     Called by *egterg:
     cdiaghg      :     37.33s CPU     37.34s WALL (     780 calls)
     cegterg:over :     25.35s CPU     25.36s WALL (     540 calls)
     cegterg:upda :     16.30s CPU     16.31s WALL (     540 calls)
     cegterg:last :     26.73s CPU     26.75s WALL (     397 calls)
     cdiaghg:chol :      2.05s CPU      2.05s WALL (     780 calls)
     cdiaghg:inve :      0.87s CPU      0.87s WALL (     780 calls)
     cdiaghg:para :      8.09s CPU      8.09s WALL (    1560 calls)
     h_psi        :    180.59s CPU    180.73s WALL (     809 calls)
     s_psi        :     25.39s CPU     25.41s WALL (     809 calls)
     g_psi        :      0.86s CPU      0.86s WALL (     540 calls)

     Called by h_psi:
     h_psi:calbec :     24.89s CPU     24.91s WALL (     809 calls)
     vloc_psi     :    127.78s CPU    127.88s WALL (     809 calls)
     add_vuspsi   :     25.98s CPU     26.01s WALL (     809 calls)

     General routines
     calbec       :     39.72s CPU     39.74s WALL (    1156 calls)
     fft          :   7135.25s CPU   7136.03s WALL (    3695 calls)
     ffts         :     63.05s CPU     63.06s WALL (   99352 calls)
     fftw         :     99.72s CPU     99.74s WALL (  302492 calls)
     interpolate  :   7108.97s CPU   7109.73s WALL (     271 calls)
 
     Parallel routines

     PAW routines
     PAW_pot      :     22.32s CPU     22.33s WALL (     286 calls)
     PAW_symme    :      0.08s CPU      0.08s WALL (     554 calls)
 
     Environ routines
 
     PWSCF        :      9h45m CPU     20h 0m WALL

 
   This run was terminated on:  12:12:37  19Jul2023            

=------------------------------------------------------------------------------=
   JOB DONE.
=------------------------------------------------------------------------------=
