
     Program PWSCF v.7.2 starts on 18Jul2023 at 16:10:55 
        Git branch: heads/qe-7.2
        Last git commit: b4c5e8deeb7d1863e7553a87b45f8d22c21926a5
        Last git commit date: Mon Mar 27 16:12:09 2023 +0000
        Last git commit subject: Merge branch 'merge_fix_hubbard' into 'develop'

     This program is part of the open-source Quantum ESPRESSO suite
     for quantum simulation of materials; please cite
         "P. Giannozzi et al., J. Phys.:Condens. Matter 21 395502 (2009);
         "P. Giannozzi et al., J. Phys.:Condens. Matter 29 465901 (2017);
         "P. Giannozzi et al., J. Chem. Phys. 152 154105 (2020);
          URL http://www.quantum-espresso.org", 
     in publications or presentations arising from this work. More details at
     http://www.quantum-espresso.org/quote

     Parallel version (MPI), running on    20 processors

     MPI processes distributed on     1 nodes
     101169 MiB available memory on the printing compute node when the environment starts
 
     Reading input from RuO2-110-0-023.in

     Current dimensions of program PWSCF are:
     Max number of different atomic species (ntypx) = 10
     Max number of k-points (npk) =  40000
     Max angular momentum in pseudopotentials (lmaxx) =  4
 
     Reading input from environ.in:
     * Environ restarting
     * setting up water environment
     * using electronic solvent mode
     * setting boundary derivatives method to SCCS default
     

     File /storage/home/mgm6007/ixd4/Maria/Strain1_Files/RuO2-110-0-023/RuO2-110-0-023.update deleted, as requested

     File /storage/home/mgm6007/ixd4/Maria/Strain1_Files/RuO2-110-0-023/RuO2-110-0-023.bfgs deleted, as requested
     file O.pbe-n-kjpaw_psl.0.1.UPF: wavefunction(s)  2P renormalized
     Message from routine setup:
     using ibrav=0 with symmetry is DISCOURAGED, use correct ibrav instead
 
     R & G space division:  proc/nbgrp/npool/nimage =      20
     Subspace diagonalization in iterative solution of the eigenvalue problem:
     one sub-group per band group will be used
     scalapack distributed-memory algorithm (size of sub-group:  2*  2 procs)

 
     Parallelization info
     --------------------
     sticks:   dense  smooth     PW     G-vecs:    dense   smooth      PW
     Min         276     110     29                54830    13868    1873
     Max         277     111     30                54841    13883    1882
     Sum        5527    2209    585              1096679   277485   37533
 
     Using Slab Decomposition
 


     bravais-lattice index     =            0
     lattice parameter (alat)  =      12.3893  a.u.
     unit-cell volume          =    5808.5831 (a.u.)^3
     number of atoms/cell      =           46
     number of atomic types    =            3
     number of electrons       =       366.00
     number of Kohn-Sham states=          220
     kinetic-energy cutoff     =      50.0000  Ry
     charge density cutoff     =     500.0000  Ry
     scf convergence threshold =      1.0E-09
     mixing beta               =       0.7000
     number of iterations used =            8  local-TF  mixing
     energy convergence thresh.=      1.0E-04
     force convergence thresh. =      1.0E-04
     Exchange-correlation= PBE
                           (   1   4   3   4   0   0   0)
     nstep                     =          200


     ================================================================================
 
                                  Environ Setup Summary

     ================================================================================
 
     Please cite

          O. Andreussi, I. Dabo and N. Marzari, J. Chem. Phys. 136, 064102 (2012)

     in publications or presentations arising from this work.

     ================================================================================
 
     Parameters
     ==========

     compensation onset threshold      =               0.1000E+00
     static permittivity               =                    78.30
     surface tension in input (dyn/cm) =                    47.90
     surface tension in internal units =               0.6153E-04
     external pressure in input (GPa)  =                    -0.36
     external pressure in inter. units =              -0.2447E-04

     Solvent Boundary
     ================

     solvent mode                      =               electronic
     derivatives method                =                    chain
     numerical core for derivatives    =                      fft
     switching function adopted        =                     SCCS
     density limit for vacuum region   =               0.5000E-02
     density limit for bulk solvent    =               0.1000E-03

     Electrostatic Setup
     ===================

     electrostatic problem to solve    =              generalized
     numerical solver adopted          =                       cg
     type of auxiliary density adopted =                     none
     numerical core for poisson        =                      fft
     type of pbc corrections           =                parabolic
     numerical core for corrections    =                      1da

     ================================================================================
 

     celldm(1)=  12.389316  celldm(2)=   0.000000  celldm(3)=   0.000000
     celldm(4)=   0.000000  celldm(5)=   0.000000  celldm(6)=   0.000000

     crystal axes: (cart. coord. in units of alat)
               a(1) = (   1.000000   0.000000   0.000000 )  
               a(2) = (   0.000000   0.904766   0.000000 )  
               a(3) = (   0.000000   0.000000   3.375918 )  

     reciprocal axes: (cart. coord. in units 2 pi/alat)
               b(1) = (  1.000000  0.000000  0.000000 )  
               b(2) = (  0.000000  1.105258  0.000000 )  
               b(3) = (  0.000000  0.000000  0.296216 )  


     PseudoPot. # 1 for O  read from file:
     /gpfs/group/ixd4/default/Simon/pseudopotentials/materialscloud/SSSP_1.3.0_PBE_efficiency/O.pbe-n-kjpaw_psl.0.1.UPF
     MD5 check sum: 0234752ac141de4415c5fc33072bef88
     Pseudo is Projector augmented-wave + core cor, Zval =  6.0
     Generated using "atomic" code by A. Dal Corso  v.5.0.99 svn rev. 10869
     Shape of augmentation charge: BESSEL
     Using radial grid of 1095 points,  4 beta functions with: 
                l(1) =   0
                l(2) =   0
                l(3) =   1
                l(4) =   1
     Q(r) pseudized with 0 coefficients 


     PseudoPot. # 2 for Ru read from file:
     /gpfs/group/ixd4/default/Simon/pseudopotentials/materialscloud/SSSP_1.3.0_PBE_efficiency/Ru_ONCV_PBE-1.0.oncvpsp.upf
     MD5 check sum: be037bb81c227cfb9b1461a9f099f4bd
     Pseudo is Norm-conserving, Zval = 16.0
     Generated using ONCVPSP code by D. R. Hamann
     Using radial grid of 1458 points,  6 beta functions with: 
                l(1) =   0
                l(2) =   0
                l(3) =   1
                l(4) =   1
                l(5) =   2
                l(6) =   2

     PseudoPot. # 3 for H  read from file:
     /gpfs/group/ixd4/default/Simon/pseudopotentials/materialscloud/SSSP_1.3.0_PBE_efficiency/H.pbe-rrkjus_psl.1.0.0.UPF
     MD5 check sum: f52b6d4d1c606e5624b1dc7b2218f220
     Pseudo is Ultrasoft, Zval =  1.0
     Generated using "atomic" code by A. Dal Corso  v.5.1
     Using radial grid of  929 points,  2 beta functions with: 
                l(1) =   0
                l(2) =   0
     Q(r) pseudized with 0 coefficients 


     atomic species   valence    mass     pseudopotential
        O              6.00    15.99940     O ( 1.00)
        Ru            16.00   101.07000     Ru( 1.00)
        H              1.00     1.00794     H ( 1.00)

      2 Sym. Ops. (no inversion) found



   Cartesian axes

     site n.     atom                  positions (alat units)
         1           O   tau(   1) = (   0.0017077   0.4003591   0.9073969  )
         2           O   tau(   2) = (   0.4870398   0.4459077   0.9210314  )
         3           O   tau(   3) = (   0.0005087   0.0127434   1.0172191  )
         4           O   tau(   4) = (   0.4992791   0.0054892   1.0284373  )
         5           Ru  tau(   5) = (   0.2496734   0.0036233   1.2116891  )
         6           Ru  tau(   6) = (   0.7503350   0.0035014   1.2108492  )
         7           O   tau(   7) = (   0.2491845   0.2859643   1.2244491  )
         8           O   tau(   8) = (   0.7490217   0.2862165   1.2161318  )
         9           Ru  tau(   9) = (  -0.0008228   0.4546743   1.2070475  )
        10           Ru  tau(  10) = (   0.4999152   0.4555735   1.1847735  )
        11           O   tau(  11) = (   0.2416024   0.6274575   1.1963446  )
        12           O   tau(  12) = (   0.7559270   0.6259703   1.1938779  )
        13           O   tau(  13) = (  -0.0004673   0.0018041   1.3878445  )
        14           O   tau(  14) = (   0.5010784  -0.0006446   1.3900516  )
        15           O   tau(  15) = (  -0.0029575   0.4625777   1.5062193  )
        16           O   tau(  16) = (   0.4970713   0.4641247   1.4953449  )
        17           Ru  tau(  17) = (   0.0023124   0.0085287   1.6879622  )
        18           Ru  tau(  18) = (   0.5028078   0.0087076   1.6879622  )
        19           O   tau(  19) = (   0.2549779   0.1776653   1.6879622  )
        20           O   tau(  20) = (   0.7538863   0.1773487   1.6879622  )
        21           Ru  tau(  21) = (   0.2462737   0.4617002   1.6879622  )
        22           Ru  tau(  22) = (   0.7423328   0.4615676   1.6879622  )
        23           O   tau(  23) = (   0.2545247   0.7455776   1.6879622  )
        24           O   tau(  24) = (   0.7544845   0.7453826   1.6879622  )
        25           O   tau(  25) = (  -0.0029575   0.4625777   1.8697016  )
        26           O   tau(  26) = (   0.4970713   0.4641247   1.8805760  )
        27           O   tau(  27) = (  -0.0004673   0.0018041   1.9880764  )
        28           O   tau(  28) = (   0.5010784  -0.0006446   1.9858693  )
        29           Ru  tau(  29) = (   0.2496734   0.0036233   2.1642319  )
        30           Ru  tau(  30) = (   0.7503350   0.0035014   2.1650718  )
        31           O   tau(  31) = (   0.2491845   0.2859643   2.1514719  )
        32           O   tau(  32) = (   0.7490217   0.2862165   2.1597891  )
        33           Ru  tau(  33) = (  -0.0008228   0.4546743   2.1688734  )
        34           Ru  tau(  34) = (   0.4999152   0.4555735   2.1911474  )
        35           O   tau(  35) = (   0.2416024   0.6274575   2.1795763  )
        36           O   tau(  36) = (   0.7559270   0.6259703   2.1820430  )
        37           O   tau(  37) = (   0.0005087   0.0127434   2.3587052  )
        38           O   tau(  38) = (   0.4992791   0.0054892   2.3474870  )
        39           O   tau(  39) = (   0.0017077   0.4003591   2.4685240  )
        40           O   tau(  40) = (   0.4870398   0.4459077   2.4548896  )
        41           H   tau(  41) = (   0.1353674   0.4330542   0.8495040  )
        42           H   tau(  42) = (   0.1353674   0.4330542   2.5264135  )
        43           H   tau(  43) = (  -0.0000989   0.1476859   0.9424608  )
        44           H   tau(  44) = (  -0.0000989   0.1476859   2.4334568  )
        45           H   tau(  45) = (   0.4984697   0.0307209   0.8816058  )
        46           H   tau(  46) = (   0.4984697   0.0307209   2.4943117  )

     number of k points=     2  Marzari-Vanderbilt smearing, width (Ry)=  0.0300
                       cart. coord. in units 2pi/alat
        k(    1) = (   0.2500000   0.2763144   0.0000000), wk =   1.0000000
        k(    2) = (  -0.2500000   0.2763144   0.0000000), wk =   1.0000000

     Dense  grid:  1096679 G-vectors     FFT dimensions: (  90,  80, 300)

     Smooth grid:   277485 G-vectors     FFT dimensions: (  60,  54, 192)

     Estimated max dynamical RAM per process >     179.80 MB

     Estimated total dynamical RAM >       3.51 GB

     Check: negative core charge=   -0.000001

     Initial potential from superposition of free atoms

     starting charge     365.9933, renormalised to     366.0000

     add environment contribution to local potential
     Polarization accuracy = 8.3E-12, # of iterations =  24

     negative rho (up, down):  2.973E-05 0.000E+00
     Starting wfcs are  238 randomized atomic wfcs
     Checking if some PAW data can be deallocated... 

     total cpu time spent up to now is     2002.7 secs

     per-process dynamical memory:   149.7 Mb

     Self-consistent Calculation

     iteration #  1     ecut=    50.00 Ry     beta= 0.70
     Davidson diagonalization with overlap
     ethr =  1.00E-02,  avg # of iterations =  2.0

     total cpu time spent up to now is     2755.2 secs

     total energy              =   -3432.76142361 Ry
     estimated scf accuracy    <       9.61204032 Ry
     electrostatic embedding   =      -0.00178504 Ry
     cavitation energy         =       0.01958360 Ry
     PV energy                 =      -0.08401375 Ry
     correction to one-el term =     221.48291855 Ry

     iteration #  2     ecut=    50.00 Ry     beta= 0.70
     Davidson diagonalization with overlap
     ethr =  2.63E-03,  avg # of iterations =  2.0

     total cpu time spent up to now is     3427.0 secs

     total energy              =   -3434.85806745 Ry
     estimated scf accuracy    <       2.17798344 Ry
     electrostatic embedding   =      -0.00272912 Ry
     cavitation energy         =       0.01952010 Ry
     PV energy                 =      -0.08457838 Ry
     correction to one-el term =     221.48574922 Ry

     iteration #  3     ecut=    50.00 Ry     beta= 0.70
     Davidson diagonalization with overlap
     ethr =  5.95E-04,  avg # of iterations =  1.0

     total cpu time spent up to now is     4381.7 secs

     total energy              =   -3435.05029502 Ry
     estimated scf accuracy    <       0.58733935 Ry
     electrostatic embedding   =      -0.00310129 Ry
     cavitation energy         =       0.01958550 Ry
     PV energy                 =      -0.08465100 Ry
     correction to one-el term =     221.48672314 Ry

     iteration #  4     ecut=    50.00 Ry     beta= 0.70
     Davidson diagonalization with overlap
     ethr =  1.60E-04,  avg # of iterations =  2.0

     total cpu time spent up to now is     4957.7 secs

     total energy              =   -3435.10409439 Ry
     estimated scf accuracy    <       0.53496427 Ry
     electrostatic embedding   =      -0.00318594 Ry
     cavitation energy         =       0.01975406 Ry
     PV energy                 =      -0.08416927 Ry
     correction to one-el term =     221.48663507 Ry

     iteration #  5     ecut=    50.00 Ry     beta= 0.70
     Davidson diagonalization with overlap
     ethr =  1.46E-04,  avg # of iterations =  1.0

     total cpu time spent up to now is     5607.0 secs

     total energy              =   -3435.09392806 Ry
     estimated scf accuracy    <       0.21899193 Ry
     electrostatic embedding   =      -0.00332140 Ry
     cavitation energy         =       0.02001856 Ry
     PV energy                 =      -0.08357038 Ry
     correction to one-el term =     221.48666547 Ry

     iteration #  6     ecut=    50.00 Ry     beta= 0.70
     Davidson diagonalization with overlap
     ethr =  5.98E-05,  avg # of iterations =  1.0

     total cpu time spent up to now is     6158.3 secs

     total energy              =   -3435.09235600 Ry
     estimated scf accuracy    <       0.11563997 Ry
     electrostatic embedding   =      -0.00337380 Ry
     cavitation energy         =       0.02061760 Ry
     PV energy                 =      -0.08221807 Ry
     correction to one-el term =     221.48619145 Ry

     iteration #  7     ecut=    50.00 Ry     beta= 0.70
     Davidson diagonalization with overlap
     ethr =  3.16E-05,  avg # of iterations =  1.0

     add environment contribution to local potential
     Polarization accuracy = 3.2E-12, # of iterations =  44

     total cpu time spent up to now is     6826.3 secs

     total energy              =   -3435.08700891 Ry
     estimated scf accuracy    <       0.07939136 Ry
     electrostatic embedding   =      -0.00330417 Ry
     cavitation energy         =       0.02083862 Ry
     PV energy                 =      -0.08165097 Ry
     correction to one-el term =     221.48576585 Ry

     iteration #  8     ecut=    50.00 Ry     beta= 0.70
     Davidson diagonalization with overlap
     ethr =  2.17E-05,  avg # of iterations =  2.0

     add environment contribution to local potential
     Polarization accuracy = 4.9E-12, # of iterations =  47

     total cpu time spent up to now is     7416.1 secs

     total energy              =   -3435.12127616 Ry
     estimated scf accuracy    <       0.07156685 Ry
     electrostatic embedding   =      -0.04472349 Ry
     cavitation energy         =       0.02138803 Ry
     PV energy                 =      -0.08038543 Ry
     correction to one-el term =     187.17480669 Ry

     iteration #  9     ecut=    50.00 Ry     beta= 0.70
     Davidson diagonalization with overlap
     ethr =  1.96E-05,  avg # of iterations =  1.0

     add environment contribution to local potential
     Polarization accuracy = 7.0E-12, # of iterations =  49

     total cpu time spent up to now is     8179.1 secs

     total energy              =   -3435.12076586 Ry
     estimated scf accuracy    <       0.02586220 Ry
     electrostatic embedding   =      -0.04797619 Ry
     cavitation energy         =       0.02153749 Ry
     PV energy                 =      -0.08001695 Ry
     correction to one-el term =     186.28044097 Ry

     iteration # 10     ecut=    50.00 Ry     beta= 0.70
     Davidson diagonalization with overlap
     ethr =  7.07E-06,  avg # of iterations = 11.0

     negative rho (up, down):  5.893E-04 0.000E+00

     add environment contribution to local potential
     Polarization accuracy = 3.8E-12, # of iterations =  50

     total cpu time spent up to now is     8823.4 secs

     total energy              =   -3435.12101204 Ry
     estimated scf accuracy    <       0.01261576 Ry
     electrostatic embedding   =      -0.05253080 Ry
     cavitation energy         =       0.02155683 Ry
     PV energy                 =      -0.07975233 Ry
     correction to one-el term =     185.86968601 Ry

     iteration # 11     ecut=    50.00 Ry     beta= 0.70
     Davidson diagonalization with overlap
     ethr =  3.45E-06,  avg # of iterations =  3.0

     negative rho (up, down):  1.174E-03 0.000E+00

     add environment contribution to local potential
     Polarization accuracy = 7.0E-12, # of iterations =  49

     total cpu time spent up to now is     9542.8 secs

     total energy              =   -3435.12347141 Ry
     estimated scf accuracy    <       0.00809603 Ry
     electrostatic embedding   =      -0.05922394 Ry
     cavitation energy         =       0.02139168 Ry
     PV energy                 =      -0.07964808 Ry
     correction to one-el term =     186.37677286 Ry

     iteration # 12     ecut=    50.00 Ry     beta= 0.70
     Davidson diagonalization with overlap
     ethr =  2.21E-06,  avg # of iterations =  2.0

     negative rho (up, down):  2.169E-03 0.000E+00

     add environment contribution to local potential
     Polarization accuracy = 2.2E-12, # of iterations =  50

     total cpu time spent up to now is    10068.7 secs

     total energy              =   -3435.12456043 Ry
     estimated scf accuracy    <       0.00554127 Ry
     electrostatic embedding   =      -0.06234127 Ry
     cavitation energy         =       0.02123269 Ry
     PV energy                 =      -0.07973549 Ry
     correction to one-el term =     187.27982385 Ry

     iteration # 13     ecut=    50.00 Ry     beta= 0.70
     Davidson diagonalization with overlap
     ethr =  1.51E-06,  avg # of iterations =  6.0

     negative rho (up, down):  1.717E-04 0.000E+00

     add environment contribution to local potential
     Polarization accuracy = 4.2E-12, # of iterations =  48

     total cpu time spent up to now is    10688.2 secs

     total energy              =   -3435.12523049 Ry
     estimated scf accuracy    <       0.00232560 Ry
     electrostatic embedding   =      -0.06580164 Ry
     cavitation energy         =       0.02115434 Ry
     PV energy                 =      -0.07976150 Ry
     correction to one-el term =     187.84981914 Ry

     iteration # 14     ecut=    50.00 Ry     beta= 0.70
     Davidson diagonalization with overlap
     ethr =  6.35E-07,  avg # of iterations =  6.0

     add environment contribution to local potential
     Polarization accuracy = 3.4E-12, # of iterations =  47

     total cpu time spent up to now is    11284.9 secs

     total energy              =   -3435.12555849 Ry
     estimated scf accuracy    <       0.00160970 Ry
     electrostatic embedding   =      -0.06335574 Ry
     cavitation energy         =       0.02103736 Ry
     PV energy                 =      -0.07997525 Ry
     correction to one-el term =     188.94588710 Ry

     iteration # 15     ecut=    50.00 Ry     beta= 0.70
     Davidson diagonalization with overlap
     ethr =  4.40E-07,  avg # of iterations =  6.5

     negative rho (up, down):  7.134E-07 0.000E+00

     add environment contribution to local potential
     Polarization accuracy = 7.3E-12, # of iterations =  46

     total cpu time spent up to now is    11834.6 secs

     total energy              =   -3435.12594917 Ry
     estimated scf accuracy    <       0.00079625 Ry
     electrostatic embedding   =      -0.06131346 Ry
     cavitation energy         =       0.02099862 Ry
     PV energy                 =      -0.08010251 Ry
     correction to one-el term =     189.81902301 Ry

     iteration # 16     ecut=    50.00 Ry     beta= 0.70
     Davidson diagonalization with overlap
     ethr =  2.18E-07,  avg # of iterations =  7.0

     negative rho (up, down):  5.564E-04 0.000E+00

     add environment contribution to local potential
     Polarization accuracy = 5.7E-12, # of iterations =  45

     total cpu time spent up to now is    12519.0 secs

     total energy              =   -3435.12606138 Ry
     estimated scf accuracy    <       0.00045460 Ry
     electrostatic embedding   =      -0.06087625 Ry
     cavitation energy         =       0.02096076 Ry
     PV energy                 =      -0.08016013 Ry
     correction to one-el term =     190.47713964 Ry

     iteration # 17     ecut=    50.00 Ry     beta= 0.70
     Davidson diagonalization with overlap
     ethr =  1.24E-07,  avg # of iterations =  7.0

     negative rho (up, down):  1.049E-03 0.000E+00

     add environment contribution to local potential
     Polarization accuracy = 7.9E-12, # of iterations =  45

     total cpu time spent up to now is    13188.7 secs

     total energy              =   -3435.12616632 Ry
     estimated scf accuracy    <       0.00006609 Ry
     electrostatic embedding   =      -0.05866553 Ry
     cavitation energy         =       0.02093357 Ry
     PV energy                 =      -0.08025035 Ry
     correction to one-el term =     191.01581087 Ry

     iteration # 18     ecut=    50.00 Ry     beta= 0.70
     Davidson diagonalization with overlap
     ethr =  1.81E-08,  avg # of iterations =  3.0

     negative rho (up, down):  8.109E-04 0.000E+00

     add environment contribution to local potential
     Polarization accuracy = 9.4E-12, # of iterations =  45

     total cpu time spent up to now is    13828.8 secs

     total energy              =   -3435.12618510 Ry
     estimated scf accuracy    <       0.00005395 Ry
     electrostatic embedding   =      -0.05802389 Ry
     cavitation energy         =       0.02095060 Ry
     PV energy                 =      -0.08021900 Ry
     correction to one-el term =     191.10556745 Ry

     iteration # 19     ecut=    50.00 Ry     beta= 0.70
     Davidson diagonalization with overlap
     ethr =  1.47E-08,  avg # of iterations =  1.0

     negative rho (up, down):  1.155E-03 0.000E+00

     add environment contribution to local potential
     Polarization accuracy = 8.0E-12, # of iterations =  45

     total cpu time spent up to now is    13986.8 secs

     total energy              =   -3435.12619169 Ry
     estimated scf accuracy    <       0.00002824 Ry
     electrostatic embedding   =      -0.05799354 Ry
     cavitation energy         =       0.02095168 Ry
     PV energy                 =      -0.08020809 Ry
     correction to one-el term =     191.10732889 Ry

     iteration # 20     ecut=    50.00 Ry     beta= 0.70
     Davidson diagonalization with overlap
     ethr =  7.72E-09,  avg # of iterations =  3.0

     negative rho (up, down):  1.308E-03 0.000E+00

     add environment contribution to local potential
     Polarization accuracy = 9.1E-12, # of iterations =  45

     total cpu time spent up to now is    14128.1 secs

     total energy              =   -3435.12620003 Ry
     estimated scf accuracy    <       0.00001266 Ry
     electrostatic embedding   =      -0.05744774 Ry
     cavitation energy         =       0.02095844 Ry
     PV energy                 =      -0.08019361 Ry
     correction to one-el term =     191.18535309 Ry

     iteration # 21     ecut=    50.00 Ry     beta= 0.70
     Davidson diagonalization with overlap
     ethr =  3.46E-09,  avg # of iterations =  3.0

     negative rho (up, down):  1.713E-04 0.000E+00

     add environment contribution to local potential
     Polarization accuracy = 9.8E-12, # of iterations =  45

     total cpu time spent up to now is    14273.4 secs

     total energy              =   -3435.12619449 Ry
     estimated scf accuracy    <       0.00000479 Ry
     electrostatic embedding   =      -0.05698711 Ry
     cavitation energy         =       0.02096113 Ry
     PV energy                 =      -0.08018143 Ry
     correction to one-el term =     191.24660465 Ry

     iteration # 22     ecut=    50.00 Ry     beta= 0.70
     Davidson diagonalization with overlap
     ethr =  1.31E-09,  avg # of iterations =  6.0

     negative rho (up, down):  1.765E-04 0.000E+00

     add environment contribution to local potential
     Polarization accuracy = 8.8E-12, # of iterations =  46

     total cpu time spent up to now is    14406.8 secs

     total energy              =   -3435.12619583 Ry
     estimated scf accuracy    <       0.00000246 Ry
     electrostatic embedding   =      -0.05693907 Ry
     cavitation energy         =       0.02096449 Ry
     PV energy                 =      -0.08017076 Ry
     correction to one-el term =     191.17521398 Ry

     iteration # 23     ecut=    50.00 Ry     beta= 0.70
     Davidson diagonalization with overlap
     ethr =  6.72E-10,  avg # of iterations =  2.0

     negative rho (up, down):  9.371E-05 0.000E+00

     add environment contribution to local potential
     Polarization accuracy = 9.1E-12, # of iterations =  46

     total cpu time spent up to now is    14545.8 secs

     total energy              =   -3435.12619605 Ry
     estimated scf accuracy    <       0.00000235 Ry
     electrostatic embedding   =      -0.05683834 Ry
     cavitation energy         =       0.02096482 Ry
     PV energy                 =      -0.08017062 Ry
     correction to one-el term =     191.18280281 Ry

     iteration # 24     ecut=    50.00 Ry     beta= 0.70
     Davidson diagonalization with overlap
     ethr =  6.43E-10,  avg # of iterations =  3.0

     negative rho (up, down):  7.209E-05 0.000E+00

     add environment contribution to local potential
     Polarization accuracy = 8.7E-12, # of iterations =  46

     total cpu time spent up to now is    14702.2 secs

     total energy              =   -3435.12619638 Ry
     estimated scf accuracy    <       0.00000060 Ry
     electrostatic embedding   =      -0.05658511 Ry
     cavitation energy         =       0.02096597 Ry
     PV energy                 =      -0.08016803 Ry
     correction to one-el term =     191.19203806 Ry

     iteration # 25     ecut=    50.00 Ry     beta= 0.70
     Davidson diagonalization with overlap
     ethr =  1.65E-10,  avg # of iterations =  2.0

     negative rho (up, down):  8.540E-05 0.000E+00

     add environment contribution to local potential
     Polarization accuracy = 9.0E-12, # of iterations =  45

     total cpu time spent up to now is    14845.7 secs

     total energy              =   -3435.12619641 Ry
     estimated scf accuracy    <       0.00000037 Ry
     electrostatic embedding   =      -0.05653117 Ry
     cavitation energy         =       0.02096612 Ry
     PV energy                 =      -0.08016975 Ry
     correction to one-el term =     191.19111482 Ry

     iteration # 26     ecut=    50.00 Ry     beta= 0.70
     Davidson diagonalization with overlap
     ethr =  1.01E-10,  avg # of iterations =  3.0

     negative rho (up, down):  1.006E-04 0.000E+00

     add environment contribution to local potential
     Polarization accuracy = 9.2E-12, # of iterations =  45

     total cpu time spent up to now is    14983.3 secs

     total energy              =   -3435.12619657 Ry
     estimated scf accuracy    <       0.00000032 Ry
     electrostatic embedding   =      -0.05647805 Ry
     cavitation energy         =       0.02096615 Ry
     PV energy                 =      -0.08017211 Ry
     correction to one-el term =     191.19633622 Ry

     iteration # 27     ecut=    50.00 Ry     beta= 0.70
     Davidson diagonalization with overlap
     ethr =  8.86E-11,  avg # of iterations =  1.0

     negative rho (up, down):  1.131E-04 0.000E+00

     add environment contribution to local potential
     Polarization accuracy = 8.4E-12, # of iterations =  46

     total cpu time spent up to now is    15140.4 secs

     total energy              =   -3435.12619665 Ry
     estimated scf accuracy    <       0.00000012 Ry
     electrostatic embedding   =      -0.05647419 Ry
     cavitation energy         =       0.02096626 Ry
     PV energy                 =      -0.08017160 Ry
     correction to one-el term =     191.20014272 Ry

     iteration # 28     ecut=    50.00 Ry     beta= 0.70
     Davidson diagonalization with overlap
     ethr =  3.41E-11,  avg # of iterations =  3.0

     negative rho (up, down):  1.405E-04 0.000E+00

     add environment contribution to local potential
     Polarization accuracy = 9.3E-12, # of iterations =  45

     total cpu time spent up to now is    15269.2 secs

     total energy              =   -3435.12619677 Ry
     estimated scf accuracy    <       0.00000008 Ry
     electrostatic embedding   =      -0.05643523 Ry
     cavitation energy         =       0.02096641 Ry
     PV energy                 =      -0.08017217 Ry
     correction to one-el term =     191.20550403 Ry

     iteration # 29     ecut=    50.00 Ry     beta= 0.70
     Davidson diagonalization with overlap
     ethr =  2.23E-11,  avg # of iterations =  1.0

     negative rho (up, down):  1.364E-04 0.000E+00

     add environment contribution to local potential
     Polarization accuracy = 9.3E-12, # of iterations =  45

     total cpu time spent up to now is    15420.8 secs

     total energy              =   -3435.12619720 Ry
     estimated scf accuracy    <       0.00000007 Ry
     electrostatic embedding   =      -0.05643054 Ry
     cavitation energy         =       0.02096631 Ry
     PV energy                 =      -0.08017291 Ry
     correction to one-el term =     191.21028956 Ry

     iteration # 30     ecut=    50.00 Ry     beta= 0.70
     Davidson diagonalization with overlap
     ethr =  2.03E-11,  avg # of iterations =  2.0

     negative rho (up, down):  1.482E-04 0.000E+00

     add environment contribution to local potential
     Polarization accuracy = 9.1E-12, # of iterations =  45

     total cpu time spent up to now is    15560.5 secs

     total energy              =   -3435.12619732 Ry
     estimated scf accuracy    <       0.00000007 Ry
     electrostatic embedding   =      -0.05642521 Ry
     cavitation energy         =       0.02096633 Ry
     PV energy                 =      -0.08017271 Ry
     correction to one-el term =     191.21041257 Ry

     iteration # 31     ecut=    50.00 Ry     beta= 0.70
     Davidson diagonalization with overlap
     ethr =  1.90E-11,  avg # of iterations =  2.0

     negative rho (up, down):  1.574E-04 0.000E+00

     add environment contribution to local potential
     Polarization accuracy = 8.2E-12, # of iterations =  46

     total cpu time spent up to now is    15694.7 secs

     total energy              =   -3435.12619766 Ry
     estimated scf accuracy    <       0.00000006 Ry
     electrostatic embedding   =      -0.05643080 Ry
     cavitation energy         =       0.02096624 Ry
     PV energy                 =      -0.08017267 Ry
     correction to one-el term =     191.21183901 Ry

     iteration # 32     ecut=    50.00 Ry     beta= 0.70
     Davidson diagonalization with overlap
     ethr =  1.72E-11,  avg # of iterations =  1.5

     negative rho (up, down):  1.532E-04 0.000E+00

     add environment contribution to local potential
     Polarization accuracy = 9.9E-12, # of iterations =  45

     total cpu time spent up to now is    15827.9 secs

     total energy              =   -3435.12619832 Ry
     estimated scf accuracy    <       0.00000006 Ry
     electrostatic embedding   =      -0.05642760 Ry
     cavitation energy         =       0.02096615 Ry
     PV energy                 =      -0.08017253 Ry
     correction to one-el term =     191.21354258 Ry

     iteration # 33     ecut=    50.00 Ry     beta= 0.70
     Davidson diagonalization with overlap
     ethr =  1.54E-11,  avg # of iterations =  2.0

     negative rho (up, down):  1.544E-04 0.000E+00

     add environment contribution to local potential
     Polarization accuracy = 8.8E-12, # of iterations =  45

     total cpu time spent up to now is    15983.2 secs

     total energy              =   -3435.12619990 Ry
     estimated scf accuracy    <       0.00000005 Ry
     electrostatic embedding   =      -0.05643520 Ry
     cavitation energy         =       0.02096600 Ry
     PV energy                 =      -0.08017227 Ry
     correction to one-el term =     191.21178021 Ry

     iteration # 34     ecut=    50.00 Ry     beta= 0.70
     Davidson diagonalization with overlap
     ethr =  1.48E-11,  avg # of iterations =  2.0

     negative rho (up, down):  1.439E-04 0.000E+00

     add environment contribution to local potential
     Polarization accuracy = 8.4E-12, # of iterations =  47

     total cpu time spent up to now is    16120.8 secs

     total energy              =   -3435.12619981 Ry
     estimated scf accuracy    <       0.00000005 Ry
     electrostatic embedding   =      -0.05644370 Ry
     cavitation energy         =       0.02096601 Ry
     PV energy                 =      -0.08017221 Ry
     correction to one-el term =     191.21135567 Ry

     iteration # 35     ecut=    50.00 Ry     beta= 0.70
     Davidson diagonalization with overlap
     ethr =  1.35E-11,  avg # of iterations =  2.0

     negative rho (up, down):  1.398E-04 0.000E+00

     add environment contribution to local potential
     Polarization accuracy = 7.2E-12, # of iterations =  45

     total cpu time spent up to now is    16267.3 secs

     total energy              =   -3435.12620271 Ry
     estimated scf accuracy    <       0.00000004 Ry
     electrostatic embedding   =      -0.05645159 Ry
     cavitation energy         =       0.02096596 Ry
     PV energy                 =      -0.08017215 Ry
     correction to one-el term =     191.20815149 Ry

     iteration # 36     ecut=    50.00 Ry     beta= 0.70
     Davidson diagonalization with overlap
     ethr =  1.10E-11,  avg # of iterations =  5.0

     negative rho (up, down):  1.361E-04 0.000E+00

     add environment contribution to local potential
     Polarization accuracy = 8.6E-12, # of iterations =  45

     total cpu time spent up to now is    16416.3 secs

     total energy              =   -3435.12620767 Ry
     estimated scf accuracy    <       0.00000003 Ry
     electrostatic embedding   =      -0.05645558 Ry
     cavitation energy         =       0.02096597 Ry
     PV energy                 =      -0.08017245 Ry
     correction to one-el term =     191.20638737 Ry

     iteration # 37     ecut=    50.00 Ry     beta= 0.70
     Davidson diagonalization with overlap
     ethr =  9.37E-12,  avg # of iterations =  2.0

     negative rho (up, down):  1.361E-04 0.000E+00

     add environment contribution to local potential
     Polarization accuracy = 5.1E-12, # of iterations =  46

     total cpu time spent up to now is    16560.4 secs

     total energy              =   -3435.12621112 Ry
     estimated scf accuracy    <       0.00000001 Ry
     electrostatic embedding   =      -0.05645016 Ry
     cavitation energy         =       0.02096618 Ry
     PV energy                 =      -0.08017303 Ry
     correction to one-el term =     191.20670817 Ry

     iteration # 38     ecut=    50.00 Ry     beta= 0.70
     Davidson diagonalization with overlap
     ethr =  3.84E-12,  avg # of iterations =  5.0

     negative rho (up, down):  1.374E-04 0.000E+00

     add environment contribution to local potential
     Polarization accuracy = 4.4E-12, # of iterations =  46

     total cpu time spent up to now is    16725.3 secs

     total energy              =   -3435.12621495 Ry
     estimated scf accuracy    <       0.00000001 Ry
     electrostatic embedding   =      -0.05645413 Ry
     cavitation energy         =       0.02096614 Ry
     PV energy                 =      -0.08017275 Ry
     correction to one-el term =     191.20662126 Ry

     iteration # 39     ecut=    50.00 Ry     beta= 0.70
     Davidson diagonalization with overlap
     ethr =  3.84E-12,  avg # of iterations =  2.0

     negative rho (up, down):  1.436E-04 0.000E+00

     add environment contribution to local potential
     Polarization accuracy = 3.0E-12, # of iterations =  45

     total cpu time spent up to now is    16871.9 secs

     total energy              =   -3435.12621686 Ry
     estimated scf accuracy    <          4.6E-09 Ry
     electrostatic embedding   =      -0.05645189 Ry
     cavitation energy         =       0.02096615 Ry
     PV energy                 =      -0.08017277 Ry
     correction to one-el term =     191.20731029 Ry

     iteration # 40     ecut=    50.00 Ry     beta= 0.70
     Davidson diagonalization with overlap
     ethr =  1.25E-12,  avg # of iterations =  5.0

     negative rho (up, down):  1.422E-04 0.000E+00

     add environment contribution to local potential
     Polarization accuracy = 4.0E-12, # of iterations =  45

     total cpu time spent up to now is    17023.1 secs

     total energy              =   -3435.12621893 Ry
     estimated scf accuracy    <          2.8E-09 Ry
     electrostatic embedding   =      -0.05644228 Ry
     cavitation energy         =       0.02096618 Ry
     PV energy                 =      -0.08017266 Ry
     correction to one-el term =     191.21001286 Ry

     iteration # 41     ecut=    50.00 Ry     beta= 0.70
     Davidson diagonalization with overlap
     ethr =  7.69E-13,  avg # of iterations =  1.0

     negative rho (up, down):  1.435E-04 0.000E+00

     add environment contribution to local potential
     Polarization accuracy = 2.6E-12, # of iterations =  46

     total cpu time spent up to now is    17139.9 secs

     total energy              =   -3435.12621925 Ry
     estimated scf accuracy    <          1.1E-09 Ry
     electrostatic embedding   =      -0.05644178 Ry
     cavitation energy         =       0.02096619 Ry
     PV energy                 =      -0.08017262 Ry
     correction to one-el term =     191.20978193 Ry

     iteration # 42     ecut=    50.00 Ry     beta= 0.70
     Davidson diagonalization with overlap
     ethr =  2.90E-13,  avg # of iterations =  2.0

     negative rho (up, down):  1.424E-04 0.000E+00

     the potential shift due to the Gaussian-smeared nuclei is    -1.3466 ev

     total cpu time spent up to now is    17284.2 secs

     End of self-consistent calculation

          k = 0.2500 0.2763 0.0000 ( 34692 PWs)   bands (ev):

   -78.0516 -78.0391 -77.3751 -77.3631 -77.3335 -77.3294 -77.3215 -77.3172
   -77.2805 -77.2309 -77.2211 -77.1970 -48.5263 -48.5138 -47.9960 -47.9835
   -47.7943 -47.7823 -47.7376 -47.7256 -47.6627 -47.6502 -47.6310 -47.6236
   -47.4861 -47.4738 -47.4283 -47.4215 -47.4092 -47.3659 -47.3295 -47.2918
   -47.2780 -47.2681 -47.2209 -47.2091 -47.1532 -47.1502 -47.1382 -47.1315
   -47.1192 -47.1069 -47.0991 -47.0871 -47.0687 -47.0394 -47.0074 -46.9952
   -24.0494 -23.9459 -23.7761 -23.5705 -23.5474 -23.4441 -23.4035 -23.3167
   -23.2160 -23.2001 -22.8946 -22.7931 -22.7323 -22.7229 -22.6872 -22.6607
   -22.6221 -22.5002 -22.4814 -22.4631 -22.4369 -22.3480 -22.3268 -22.2938
   -22.2396 -22.0542 -21.6717 -21.5455 -12.2386 -12.1314 -12.0900 -12.0378
   -11.9266 -11.6412 -11.6079 -11.4259 -11.3693 -11.3559 -11.2173 -11.1138
   -11.0758 -11.0039 -10.9974 -10.9687 -10.8889 -10.8739 -10.7681 -10.6303
   -10.5501 -10.5178 -10.3532 -10.3059 -10.2492 -10.1687 -10.0504  -9.9714
    -9.8193  -9.8075  -9.7084  -9.4792  -9.4111  -9.3255  -9.3180  -9.2516
    -9.1845  -9.1740  -9.0946  -9.0124  -8.9237  -8.8743  -8.7869  -8.6868
    -8.6193  -8.5585  -8.5218  -8.3141  -8.1750  -8.0946  -8.0795  -8.0533
    -8.0141  -8.0022  -7.9875  -7.9119  -7.8937  -7.7929  -7.7342  -7.6563
    -7.6396  -7.5751  -7.5109  -7.3726  -7.3550  -7.2876  -7.2541  -7.0633
    -7.0252  -6.9358  -6.8623  -6.8169  -6.7323  -6.6702  -6.6228  -6.5632
    -6.4638  -6.4326  -6.3655  -6.2505  -6.2410  -6.0653  -6.0280  -5.9834
    -5.0200  -4.9571  -4.8014  -4.7610  -4.7321  -4.7262  -4.6381  -4.6344
    -4.6079  -4.5937  -4.5526  -4.4639  -4.4371  -4.3975  -4.3949  -4.2806
    -4.2412  -4.2206  -4.2095  -4.1315  -4.0233  -3.9905  -3.8107  -3.7882
    -3.6592  -3.6420  -3.5340  -3.4202  -3.1591  -3.0888  -3.0835  -2.9487
    -2.8562  -2.8207  -2.6398  -2.5559  -1.9276  -1.8265  -1.8042  -1.6959
    -1.5058  -1.4851  -1.0561  -0.5500  -0.4688  -0.2287  -0.1919  -0.1087
     0.0606   0.1087   0.1172   0.2747   0.3925   0.5692   0.5744   0.9143
     0.9217   1.0060   1.0493   1.2225

          k =-0.2500 0.2763 0.0000 ( 34692 PWs)   bands (ev):

   -78.0516 -78.0391 -77.3751 -77.3631 -77.3335 -77.3294 -77.3215 -77.3172
   -77.2805 -77.2309 -77.2211 -77.1970 -48.5263 -48.5138 -47.9961 -47.9835
   -47.7942 -47.7822 -47.7377 -47.7257 -47.6627 -47.6502 -47.6310 -47.6236
   -47.4861 -47.4738 -47.4284 -47.4216 -47.4092 -47.3659 -47.3294 -47.2916
   -47.2778 -47.2680 -47.2211 -47.2093 -47.1533 -47.1502 -47.1381 -47.1314
   -47.1193 -47.1070 -47.0990 -47.0870 -47.0687 -47.0394 -47.0074 -46.9952
   -24.0500 -23.9470 -23.7767 -23.5693 -23.5459 -23.4415 -23.3998 -23.3133
   -23.2219 -23.2051 -22.8926 -22.7939 -22.7325 -22.7239 -22.6862 -22.6658
   -22.6230 -22.4944 -22.4769 -22.4655 -22.4391 -22.3482 -22.3283 -22.2929
   -22.2407 -22.0517 -21.6717 -21.5460 -12.2398 -12.1272 -12.0809 -12.0391
   -11.9250 -11.6265 -11.5951 -11.4405 -11.3919 -11.3640 -11.2370 -11.1155
   -11.1007 -11.0584 -11.0063 -10.9724 -10.8971 -10.7431 -10.7338 -10.6815
   -10.5493 -10.4940 -10.3783 -10.3041 -10.2406 -10.1453  -9.9964  -9.9931
    -9.8968  -9.8059  -9.6408  -9.4972  -9.4008  -9.3558  -9.3110  -9.2583
    -9.1878  -9.1687  -9.0811  -9.0289  -8.9354  -8.8981  -8.7802  -8.6574
    -8.6301  -8.5396  -8.4549  -8.4053  -8.1875  -8.0976  -8.0837  -8.0533
    -8.0286  -8.0143  -7.9502  -7.9041  -7.8898  -7.7722  -7.7253  -7.6806
    -7.6129  -7.5854  -7.4846  -7.4496  -7.3839  -7.2257  -7.2213  -7.0686
    -7.0274  -6.9265  -6.8786  -6.8185  -6.7387  -6.7130  -6.6580  -6.5269
    -6.4615  -6.4255  -6.3647  -6.2429  -6.2274  -6.0982  -5.9946  -5.9746
    -5.0373  -4.9556  -4.7847  -4.7601  -4.7544  -4.7168  -4.6469  -4.6343
    -4.6062  -4.5738  -4.5129  -4.4550  -4.4371  -4.4080  -4.4022  -4.3053
    -4.2534  -4.2399  -4.1573  -4.1462  -4.0258  -4.0002  -3.8363  -3.7883
    -3.6761  -3.6204  -3.5212  -3.4250  -3.1538  -3.0971  -3.0871  -2.9449
    -2.8552  -2.8204  -2.6348  -2.5596  -1.9258  -1.8206  -1.8024  -1.6977
    -1.5073  -1.4859  -1.0512  -0.5552  -0.4692  -0.2285  -0.1889  -0.1117
     0.0681   0.1013   0.1204   0.2675   0.3944   0.5685   0.5745   0.9225
     0.9243   0.9938   1.0466   1.2225

     the Fermi energy is    -3.8539 ev

!    total energy              =   -3435.12621963 Ry
     estimated scf accuracy    <          4.1E-10 Ry
     smearing contrib. (-TS)   =       0.06249305 Ry
     internal energy E=F+TS    =   -3435.18871268 Ry

     The total energy is F=E-TS. E is the sum of the following terms:
     one-electron contribution =  -25755.79384502 Ry
     hartree contribution      =   12862.63008728 Ry
     xc contribution           =    -448.28815098 Ry
     ewald contribution        =    9981.68232167 Ry
     one-center paw contrib.   =    -266.51348543 Ry
     electrostatic embedding   =      -0.05644106 Ry
     cavitation energy         =       0.02096616 Ry
     PV energy                 =      -0.08017250 Ry
     correction to one-el term =     191.21000719 Ry

     WARNING: you are using the parabolic pbc correction;
              the potential shift above must be added to 
              band and Fermi energies.

     convergence has been achieved in  42 iterations

     negative rho (up, down):  1.424E-04 0.000E+00

     Forces acting on atoms (cartesian axes, Ry/au):

     atom    1 type  1   force =    -0.00034198    0.00120552    0.00074050
     atom    2 type  1   force =    -0.00023463    0.00043597   -0.00210946
     atom    3 type  1   force =    -0.00052604   -0.00007904    0.00028957
     atom    4 type  1   force =    -0.00007158    0.00062144   -0.00155324
     atom    5 type  2   force =    -0.00030631   -0.00015293   -0.00046994
     atom    6 type  2   force =    -0.00031111   -0.00034645   -0.00059610
     atom    7 type  1   force =     0.00015374   -0.00025482   -0.00006491
     atom    8 type  1   force =     0.00055921   -0.00044520    0.00025492
     atom    9 type  2   force =     0.00012333   -0.00034862    0.00063893
     atom   10 type  2   force =     0.00005520   -0.00041346    0.00058840
     atom   11 type  1   force =    -0.00031181   -0.00023139   -0.00033165
     atom   12 type  1   force =     0.00000619   -0.00047094   -0.00052763
     atom   13 type  1   force =     0.00003474    0.00003954    0.00001833
     atom   14 type  1   force =    -0.00035485   -0.00000459    0.00001996
     atom   15 type  1   force =     0.00038448    0.00015575    0.00075782
     atom   16 type  1   force =    -0.00063011    0.00057086   -0.00013550
     atom   17 type  2   force =     0.00033607    0.00011946    0.00000000
     atom   18 type  2   force =     0.00025480    0.00026152    0.00000000
     atom   19 type  1   force =    -0.00032038    0.00014639    0.00000000
     atom   20 type  1   force =     0.00060888    0.00008821    0.00000000
     atom   21 type  2   force =    -0.00102971    0.00039637    0.00000000
     atom   22 type  2   force =     0.00056816    0.00026918    0.00000000
     atom   23 type  1   force =    -0.00034156    0.00046511    0.00000000
     atom   24 type  1   force =     0.00033603    0.00025830    0.00000000
     atom   25 type  1   force =     0.00038448    0.00015575   -0.00075782
     atom   26 type  1   force =    -0.00063011    0.00057086    0.00013550
     atom   27 type  1   force =     0.00003474    0.00003954   -0.00001833
     atom   28 type  1   force =    -0.00035485   -0.00000459   -0.00001996
     atom   29 type  2   force =    -0.00030631   -0.00015293    0.00046994
     atom   30 type  2   force =    -0.00031111   -0.00034645    0.00059610
     atom   31 type  1   force =     0.00015374   -0.00025482    0.00006491
     atom   32 type  1   force =     0.00055921   -0.00044520   -0.00025492
     atom   33 type  2   force =     0.00012333   -0.00034862   -0.00063893
     atom   34 type  2   force =     0.00005520   -0.00041346   -0.00058840
     atom   35 type  1   force =    -0.00031181   -0.00023139    0.00033165
     atom   36 type  1   force =     0.00000619   -0.00047094    0.00052763
     atom   37 type  1   force =    -0.00052604   -0.00007904   -0.00028957
     atom   38 type  1   force =    -0.00007158    0.00062144    0.00155324
     atom   39 type  1   force =    -0.00034198    0.00120552   -0.00074050
     atom   40 type  1   force =    -0.00023463    0.00043597    0.00210946
     atom   41 type  3   force =     0.00071078    0.00060268    0.00037673
     atom   42 type  3   force =     0.00071078    0.00060268   -0.00037673
     atom   43 type  3   force =     0.00030011   -0.00037619   -0.00115364
     atom   44 type  3   force =     0.00030011   -0.00037619    0.00115364
     atom   45 type  3   force =     0.00055451   -0.00151040    0.00121195
     atom   46 type  3   force =     0.00055451   -0.00151040   -0.00121195
     The non-local contrib.  to forces
     atom    1 type  1   force =     1.69930954    0.35198023    0.26822256
     atom    2 type  1   force =     0.01674380    0.03311228    1.23169486
     atom    3 type  1   force =    -0.00203142    1.35237864    0.19817227
     atom    4 type  1   force =    -0.01416087    0.33366617   -0.93646571
     atom    5 type  2   force =    -0.01332053    0.00920669    0.03593585
     atom    6 type  2   force =     0.01259895    0.01054896    0.03616360
     atom    7 type  1   force =     0.04497204   -0.08319060   -0.19817458
     atom    8 type  1   force =    -0.06542258   -0.07876751   -0.12755995
     atom    9 type  2   force =     0.00552875    0.00792109    0.03269366
     atom   10 type  2   force =    -0.00201906    0.00863736   -0.02467877
     atom   11 type  1   force =     0.00618497    0.06988149    0.05311022
     atom   12 type  1   force =    -0.02083373    0.05038311    0.09376673
     atom   13 type  1   force =     0.01105812    0.02893669   -0.00945384
     atom   14 type  1   force =     0.01433582    0.05800130    0.03117714
     atom   15 type  1   force =     0.04035301   -0.04024286   -0.04442429
     atom   16 type  1   force =     0.04766972   -0.01690717    0.20177393
     atom   17 type  2   force =     0.03070085    0.00325837    0.00000000
     atom   18 type  2   force =     0.03404062    0.00205348    0.00000000
     atom   19 type  1   force =    -0.00811112    0.10515614    0.00000000
     atom   20 type  1   force =    -0.04294640    0.09905922    0.00000000
     atom   21 type  2   force =    -0.00404896    0.00236684    0.00000000
     atom   22 type  2   force =     0.00613945    0.00098659    0.00000000
     atom   23 type  1   force =    -0.02073337   -0.10595293    0.00000000
     atom   24 type  1   force =    -0.03228672   -0.09948046    0.00000000
     atom   25 type  1   force =     0.04035301   -0.04024286    0.04442429
     atom   26 type  1   force =     0.04766972   -0.01690717   -0.20177393
     atom   27 type  1   force =     0.01105812    0.02893669    0.00945384
     atom   28 type  1   force =     0.01433582    0.05800130   -0.03117714
     atom   29 type  2   force =    -0.01332053    0.00920669   -0.03593585
     atom   30 type  2   force =     0.01259895    0.01054896   -0.03616360
     atom   31 type  1   force =     0.04497204   -0.08319060    0.19817458
     atom   32 type  1   force =    -0.06542258   -0.07876751    0.12755995
     atom   33 type  2   force =     0.00552875    0.00792109   -0.03269366
     atom   34 type  2   force =    -0.00201906    0.00863736    0.02467877
     atom   35 type  1   force =     0.00618497    0.06988149   -0.05311022
     atom   36 type  1   force =    -0.02083373    0.05038311   -0.09376673
     atom   37 type  1   force =    -0.00203142    1.35237864   -0.19817227
     atom   38 type  1   force =    -0.01416087    0.33366617    0.93646571
     atom   39 type  1   force =     1.69930954    0.35198023   -0.26822256
     atom   40 type  1   force =     0.01674380    0.03311228   -1.23169486
     atom   41 type  3   force =    -0.09496138   -0.02364790    0.04394630
     atom   42 type  3   force =    -0.09496138   -0.02364790   -0.04394630
     atom   43 type  3   force =     0.00072946   -0.07827933    0.04551748
     atom   44 type  3   force =     0.00072946   -0.07827933   -0.04551748
     atom   45 type  3   force =     0.00057286   -0.01848359    0.11015901
     atom   46 type  3   force =     0.00057286   -0.01848359   -0.11015901
     The ionic contribution  to forces
     atom    1 type  1   force =    -3.18626387   -0.11914208  -96.09322113
     atom    2 type  1   force =     0.12070285    0.06292366 -101.71599080
     atom    3 type  1   force =    -0.14246493   -3.70257585  -93.24503672
     atom    4 type  1   force =     0.17268018   -0.91493585  -91.22811690
     atom    5 type  2   force =     0.40095944   -1.18697823 -171.54108093
     atom    6 type  2   force =    -0.24415570   -1.30332950 -172.01041700
     atom    7 type  1   force =     0.60846440    0.18938482  -60.12134373
     atom    8 type  1   force =    -0.53476213    0.13651398  -62.00604857
     atom    9 type  2   force =    -0.53309946    2.06428633 -171.54357121
     atom   10 type  2   force =     0.70710243    1.54525615 -175.63024899
     atom   11 type  1   force =     0.47153868    0.15990358  -66.68397403
     atom   12 type  1   force =    -0.40306149    0.29627344  -67.44435335
     atom   13 type  1   force =    -0.11048393   -0.46489208  -38.69607085
     atom   14 type  1   force =    -0.01452434   -0.54369647  -38.75236219
     atom   15 type  1   force =    -0.34356876    0.29341838  -25.44417673
     atom   16 type  1   force =    -0.12266404    0.29760222  -27.48096083
     atom   17 type  2   force =     0.45858203    0.46156931   -0.00044579
     atom   18 type  2   force =     0.38787574    0.58169162   -0.00044946
     atom   19 type  1   force =     0.13402461    0.63526145   -0.00008520
     atom   20 type  1   force =    -0.09862251    0.76814459   -0.00008353
     atom   21 type  2   force =     1.48019717   -0.05004969   -0.00025043
     atom   22 type  2   force =    -1.45240578   -0.16218001   -0.00024614
     atom   23 type  1   force =     0.12163460   -0.68418447   -0.00008304
     atom   24 type  1   force =    -0.11689586   -0.75620309   -0.00008230
     atom   25 type  1   force =    -0.34357774    0.29341883   25.44395625
     atom   26 type  1   force =    -0.12267194    0.29760390   27.48078316
     atom   27 type  1   force =    -0.11048580   -0.46489960   38.69636698
     atom   28 type  1   force =    -0.01452582   -0.54370723   38.75266991
     atom   29 type  2   force =     0.40097118   -1.18698095  171.54135210
     atom   30 type  2   force =    -0.24416565   -1.30333154  172.01068700
     atom   31 type  1   force =     0.60846860    0.18935689   60.12140987
     atom   32 type  1   force =    -0.53476505    0.13648877   62.00611682
     atom   33 type  2   force =    -0.53311212    2.06429578  171.54369798
     atom   34 type  2   force =     0.70710791    1.54525840  175.63039359
     atom   35 type  1   force =     0.47153964    0.15993376   66.68403534
     atom   36 type  1   force =    -0.40306140    0.29629984   67.44441796
     atom   37 type  1   force =    -0.14246570   -3.70278231   93.24515128
     atom   38 type  1   force =     0.17268327   -0.91502147   91.22791939
     atom   39 type  1   force =    -3.18634651   -0.11915447   96.09333609
     atom   40 type  1   force =     0.12070561    0.06292671  101.71605839
     atom   41 type  3   force =     2.74626974    0.82787055  -16.59800962
     atom   42 type  3   force =     2.74635294    0.82789051   16.59802570
     atom   43 type  3   force =    -0.06576627    1.56531118  -16.93147587
     atom   44 type  3   force =    -0.06576673    1.56549947   16.93145590
     atom   45 type  3   force =     0.01591249    0.39979042  -18.50073145
     atom   46 type  3   force =     0.01591003    0.39987033   18.50108306
     The local contribution  to forces
     atom    1 type  1   force =     1.41404254   -0.18711736   95.79360606
     atom    2 type  1   force =    -0.07376590   -0.05960622  100.44397836
     atom    3 type  1   force =     0.12397358    2.32825630   93.02795265
     atom    4 type  1   force =    -0.14218044    0.55983193   92.25710581
     atom    5 type  2   force =    -0.42539163    1.15743208  171.54707738
     atom    6 type  2   force =     0.26977031    1.27030714  171.98296535
     atom    7 type  1   force =    -0.66014705   -0.09716847   60.32789644
     atom    8 type  1   force =     0.60819002   -0.04400173   62.12369450
     atom    9 type  2   force =     0.49457902   -2.05114547  171.46920886
     atom   10 type  2   force =    -0.66913706   -1.53363511  175.63582593
     atom   11 type  1   force =    -0.48805614   -0.23435881   66.62986662
     atom   12 type  1   force =     0.43398542   -0.35655547   67.32375524
     atom   13 type  1   force =     0.09677052    0.43386837   38.70334214
     atom   14 type  1   force =     0.00274950    0.48410434   38.72802120
     atom   15 type  1   force =     0.30221942   -0.25245260   25.48561089
     atom   16 type  1   force =     0.07673390   -0.27929168   27.28057684
     atom   17 type  2   force =    -0.49141180   -0.46615210   -0.00586014
     atom   18 type  2   force =    -0.41919499   -0.58482628   -0.00585871
     atom   19 type  1   force =    -0.12739166   -0.73924379   -0.00246368
     atom   20 type  1   force =     0.14272693   -0.86601629   -0.00246769
     atom   21 type  2   force =    -1.47975485    0.04943888   -0.00605496
     atom   22 type  2   force =     1.44948418    0.16286334   -0.00606306
     atom   23 type  1   force =    -0.10257478    0.78915194   -0.00246845
     atom   24 type  1   force =     0.15019456    0.85443658   -0.00247031
     atom   25 type  1   force =     0.30221536   -0.25246038  -25.48738523
     atom   26 type  1   force =     0.07672892   -0.27930381  -27.28236591
     atom   27 type  1   force =     0.09676902    0.43386801  -38.70513299
     atom   28 type  1   force =     0.00275080    0.48410027  -38.72979508
     atom   29 type  2   force =    -0.42538177    1.15742526 -171.55317065
     atom   30 type  2   force =     0.26976538    1.27030852 -171.98905642
     atom   31 type  1   force =    -0.66013289   -0.09714743  -60.33034456
     atom   32 type  1   force =     0.60817412   -0.04397965  -62.12616148
     atom   33 type  2   force =     0.49458619   -2.05120804 -171.47510034
     atom   34 type  2   force =    -0.66915793   -1.53364230 -175.64157991
     atom   35 type  1   force =    -0.48802480   -0.23438932  -66.63234089
     atom   36 type  1   force =     0.43395462   -0.35658283  -67.32623582
     atom   37 type  1   force =     0.12397501    2.32837420  -93.03176350
     atom   38 type  1   force =    -0.14218163    0.55987665  -92.26083816
     atom   39 type  1   force =     1.41407752   -0.18714826  -95.79520253
     atom   40 type  1   force =    -0.07379489   -0.05962805 -100.44536826
     atom   41 type  3   force =    -2.66797187   -0.80043662   16.56467312
     atom   42 type  3   force =    -2.66797187   -0.80043662  -16.56467312
     atom   43 type  3   force =     0.05916212   -1.48742310   16.88496078
     atom   44 type  3   force =     0.05916212   -1.48742310  -16.88496078
     atom   45 type  3   force =    -0.01164869   -0.38861802   18.44574904
     atom   46 type  3   force =    -0.01164869   -0.38861802  -18.44574904
     The core correction contribution to forces
     atom    1 type  1   force =    -0.01706075   -0.00365620   -0.00323320
     atom    2 type  1   force =    -0.00005676   -0.00024470   -0.01041526
     atom    3 type  1   force =     0.00001341   -0.01311385   -0.00273685
     atom    4 type  1   force =     0.00013323   -0.00336183    0.00904759
     atom    5 type  2   force =     0.00000000    0.00000000    0.00000000
     atom    6 type  2   force =     0.00000000    0.00000000    0.00000000
     atom    7 type  1   force =    -0.00072775    0.00003057    0.00197933
     atom    8 type  1   force =     0.00092900    0.00006559    0.00131397
     atom    9 type  2   force =     0.00000000    0.00000000    0.00000000
     atom   10 type  2   force =     0.00000000    0.00000000    0.00000000
     atom   11 type  1   force =    -0.00034078    0.00020676   -0.00044686
     atom   12 type  1   force =     0.00051122    0.00027419   -0.00087918
     atom   13 type  1   force =    -0.00012311   -0.00029550    0.00003935
     atom   14 type  1   force =    -0.00014066   -0.00062873   -0.00031163
     atom   15 type  1   force =    -0.00039359    0.00046634    0.00036823
     atom   16 type  1   force =    -0.00049409    0.00013110   -0.00264939
     atom   17 type  2   force =     0.00000000    0.00000000    0.00000000
     atom   18 type  2   force =     0.00000000    0.00000000    0.00000000
     atom   19 type  1   force =     0.00013678   -0.00055694   -0.00000205
     atom   20 type  1   force =     0.00047919   -0.00053404   -0.00000205
     atom   21 type  2   force =     0.00000000    0.00000000    0.00000000
     atom   22 type  2   force =     0.00000000    0.00000000    0.00000000
     atom   23 type  1   force =     0.00027734    0.00058436   -0.00000196
     atom   24 type  1   force =     0.00038019    0.00052922   -0.00000197
     atom   25 type  1   force =    -0.00039358    0.00046654   -0.00037053
     atom   26 type  1   force =    -0.00049402    0.00013110    0.00264733
     atom   27 type  1   force =    -0.00012311   -0.00029559   -0.00004157
     atom   28 type  1   force =    -0.00014066   -0.00062886    0.00030943
     atom   29 type  2   force =     0.00000000    0.00000000    0.00000000
     atom   30 type  2   force =     0.00000000    0.00000000    0.00000000
     atom   31 type  1   force =    -0.00072776    0.00003059   -0.00198113
     atom   32 type  1   force =     0.00092896    0.00006570   -0.00131585
     atom   33 type  2   force =     0.00000000    0.00000000    0.00000000
     atom   34 type  2   force =     0.00000000    0.00000000    0.00000000
     atom   35 type  1   force =    -0.00034066    0.00020669    0.00044485
     atom   36 type  1   force =     0.00051113    0.00027406    0.00087722
     atom   37 type  1   force =     0.00001347   -0.01311567    0.00273320
     atom   38 type  1   force =     0.00013323   -0.00336247   -0.00905334
     atom   39 type  1   force =    -0.01706154   -0.00365622    0.00323071
     atom   40 type  1   force =    -0.00005689   -0.00024477    0.01041347
     atom   41 type  3   force =     0.00000000    0.00000000    0.00000000
     atom   42 type  3   force =     0.00000000    0.00000000    0.00000000
     atom   43 type  3   force =     0.00000000    0.00000000    0.00000000
     atom   44 type  3   force =     0.00000000    0.00000000    0.00000000
     atom   45 type  3   force =     0.00000000    0.00000000    0.00000000
     atom   46 type  3   force =     0.00000000    0.00000000    0.00000000
     The Hubbard contrib.    to forces
     atom    1 type  1   force =     0.00000000    0.00000000    0.00000000
     atom    2 type  1   force =     0.00000000    0.00000000    0.00000000
     atom    3 type  1   force =     0.00000000    0.00000000    0.00000000
     atom    4 type  1   force =     0.00000000    0.00000000    0.00000000
     atom    5 type  2   force =     0.00000000    0.00000000    0.00000000
     atom    6 type  2   force =     0.00000000    0.00000000    0.00000000
     atom    7 type  1   force =     0.00000000    0.00000000    0.00000000
     atom    8 type  1   force =     0.00000000    0.00000000    0.00000000
     atom    9 type  2   force =     0.00000000    0.00000000    0.00000000
     atom   10 type  2   force =     0.00000000    0.00000000    0.00000000
     atom   11 type  1   force =     0.00000000    0.00000000    0.00000000
     atom   12 type  1   force =     0.00000000    0.00000000    0.00000000
     atom   13 type  1   force =     0.00000000    0.00000000    0.00000000
     atom   14 type  1   force =     0.00000000    0.00000000    0.00000000
     atom   15 type  1   force =     0.00000000    0.00000000    0.00000000
     atom   16 type  1   force =     0.00000000    0.00000000    0.00000000
     atom   17 type  2   force =     0.00000000    0.00000000    0.00000000
     atom   18 type  2   force =     0.00000000    0.00000000    0.00000000
     atom   19 type  1   force =     0.00000000    0.00000000    0.00000000
     atom   20 type  1   force =     0.00000000    0.00000000    0.00000000
     atom   21 type  2   force =     0.00000000    0.00000000    0.00000000
     atom   22 type  2   force =     0.00000000    0.00000000    0.00000000
     atom   23 type  1   force =     0.00000000    0.00000000    0.00000000
     atom   24 type  1   force =     0.00000000    0.00000000    0.00000000
     atom   25 type  1   force =     0.00000000    0.00000000    0.00000000
     atom   26 type  1   force =     0.00000000    0.00000000    0.00000000
     atom   27 type  1   force =     0.00000000    0.00000000    0.00000000
     atom   28 type  1   force =     0.00000000    0.00000000    0.00000000
     atom   29 type  2   force =     0.00000000    0.00000000    0.00000000
     atom   30 type  2   force =     0.00000000    0.00000000    0.00000000
     atom   31 type  1   force =     0.00000000    0.00000000    0.00000000
     atom   32 type  1   force =     0.00000000    0.00000000    0.00000000
     atom   33 type  2   force =     0.00000000    0.00000000    0.00000000
     atom   34 type  2   force =     0.00000000    0.00000000    0.00000000
     atom   35 type  1   force =     0.00000000    0.00000000    0.00000000
     atom   36 type  1   force =     0.00000000    0.00000000    0.00000000
     atom   37 type  1   force =     0.00000000    0.00000000    0.00000000
     atom   38 type  1   force =     0.00000000    0.00000000    0.00000000
     atom   39 type  1   force =     0.00000000    0.00000000    0.00000000
     atom   40 type  1   force =     0.00000000    0.00000000    0.00000000
     atom   41 type  3   force =     0.00000000    0.00000000    0.00000000
     atom   42 type  3   force =     0.00000000    0.00000000    0.00000000
     atom   43 type  3   force =     0.00000000    0.00000000    0.00000000
     atom   44 type  3   force =     0.00000000    0.00000000    0.00000000
     atom   45 type  3   force =     0.00000000    0.00000000    0.00000000
     atom   46 type  3   force =     0.00000000    0.00000000    0.00000000
     The SCF correction term to forces
     atom    1 type  1   force =    -0.00001357   -0.00000057    0.00000079
     atom    2 type  1   force =     0.00001068    0.00000186   -0.00000252
     atom    3 type  1   force =    -0.00001618    0.00000108   -0.00000822
     atom    4 type  1   force =     0.00001726   -0.00000189   -0.00000195
     atom    5 type  2   force =    -0.00000439   -0.00000147   -0.00001337
     atom    6 type  2   force =     0.00000377    0.00000036   -0.00003496
     atom    7 type  1   force =    -0.00000517    0.00000901   -0.00000550
     atom    8 type  1   force =     0.00000531    0.00000138   -0.00001322
     atom    9 type  2   force =    -0.00001995   -0.00000117   -0.00002676
     atom   10 type  2   force =     0.00002086    0.00000194   -0.00001997
     atom   11 type  1   force =    -0.00000508   -0.00000881   -0.00000561
     atom   12 type  1   force =     0.00000431   -0.00000159   -0.00001178
     atom   13 type  1   force =    -0.00000835    0.00000019   -0.00000773
     atom   14 type  1   force =     0.00000804   -0.00000010   -0.00000490
     atom   15 type  1   force =     0.00000050   -0.00000032   -0.00001245
     atom   16 type  1   force =    -0.00000035    0.00000008   -0.00000896
     atom   17 type  2   force =    -0.00000488   -0.00000012    0.00000513
     atom   18 type  2   force =     0.00000430   -0.00000031    0.00000516
     atom   19 type  1   force =     0.00000092   -0.00000249    0.00000182
     atom   20 type  1   force =    -0.00000053   -0.00000724    0.00000184
     atom   21 type  2   force =    -0.00000301    0.00000016    0.00000489
     atom   22 type  2   force =     0.00000263    0.00000019    0.00000493
     atom   23 type  1   force =     0.00000104    0.00000245    0.00000185
     atom   24 type  1   force =    -0.00000058    0.00000722    0.00000187
     atom   25 type  1   force =     0.00000048   -0.00000030    0.00001479
     atom   26 type  1   force =    -0.00000033    0.00000012    0.00001110
     atom   27 type  1   force =    -0.00000840    0.00000016    0.00000838
     atom   28 type  1   force =     0.00000809   -0.00000013    0.00000559
     atom   29 type  2   force =    -0.00000433   -0.00000160    0.00000828
     atom   30 type  2   force =     0.00000370    0.00000022    0.00002985
     atom   31 type  1   force =    -0.00000518    0.00000880    0.00000379
     atom   32 type  1   force =     0.00000532    0.00000116    0.00001144
     atom   33 type  2   force =    -0.00002006   -0.00000099    0.00002156
     atom   34 type  2   force =     0.00002098    0.00000207    0.00001424
     atom   35 type  1   force =    -0.00000511   -0.00000857    0.00000367
     atom   36 type  1   force =     0.00000434   -0.00000133    0.00000984
     atom   37 type  1   force =    -0.00001622    0.00000092    0.00000597
     atom   38 type  1   force =     0.00001731   -0.00000196   -0.00000039
     atom   39 type  1   force =    -0.00001367   -0.00000050   -0.00000221
     atom   40 type  1   force =     0.00001073    0.00000191    0.00000107
     atom   41 type  3   force =    -0.00000169   -0.00000002   -0.00000019
     atom   42 type  3   force =    -0.00000165    0.00000000    0.00000005
     atom   43 type  3   force =    -0.00000188    0.00000027   -0.00000050
     atom   44 type  3   force =    -0.00000189    0.00000026    0.00000025
     atom   45 type  3   force =     0.00000160   -0.00000013   -0.00000044
     atom   46 type  3   force =     0.00000161   -0.00000014    0.00000028

     Total force =     0.006794     Total SCF correction =     0.000101

     BFGS Geometry Optimization
     Energy error            =      0.0E+00 Ry
     Gradient error          =      2.1E-03 Ry/Bohr

     number of scf cycles    =   1
     number of bfgs steps    =   0

     energy             new  =   -3435.1262196311 Ry

     new trust radius        =       0.0021667791 bohr
     new conv_thr            =       0.0000000010 Ry


ATOMIC_POSITIONS (crystal)
O             0.0016800906        0.4426075479        0.2688029784
O             0.4870208513        0.4928818838        0.2727735749
O             0.0004662108        0.0140777165        0.3013232484
O             0.4992733607        0.0061224431        0.3046022066
Ru            0.2496486513        0.0039910023        0.3589101664
Ru            0.7503099103        0.0038390853        0.3586583621
O             0.2491969502        0.3160415614        0.3626995631
O             0.7490668716        0.3163032636        0.3602435065
Ru           -0.0008128253        0.5025011897        0.3575617729
Ru            0.4999196793        0.5034893055        0.3509626592
O             0.2415772268        0.6934816819        0.3543682075
O             0.7559274772        0.6918164797        0.3536328370
O            -0.0004644589        0.0019975192        0.4111018723
O             0.5010497447       -0.0007128969        0.4117556859
O            -0.0029264667        0.5112815389        0.4461840219
O             0.4970204521        0.5130283357        0.4429414912
Ru            0.0023395134        0.0094370538        0.5000010000
Ru            0.5028283671        0.0096475275        0.5000010000
O             0.2549520686        0.1963789706        0.5000010000
O             0.7539354784        0.1960239349        0.5000010000
Ru            0.2461905858        0.5103330526        0.5000010000
Ru            0.7423786441        0.5101751623        0.5000010000
O             0.2544971681        0.8240969730        0.5000010000
O             0.7545116292        0.8238629344        0.5000010000
O            -0.0029264667        0.5112815389        0.5538169781
O             0.4970204521        0.5130283357        0.5570595088
O            -0.0004644589        0.0019975192        0.5888991277
O             0.5010497447       -0.0007128969        0.5882453141
Ru            0.2496486513        0.0039910023        0.6410908336
Ru            0.7503099103        0.0038390853        0.6413426379
O             0.2491969502        0.3160415614        0.6373014369
O             0.7490668716        0.3163032636        0.6397574935
Ru           -0.0008128253        0.5025011897        0.6424392271
Ru            0.4999196793        0.5034893055        0.6490383408
O             0.2415772268        0.6934816819        0.6456327925
O             0.7559274772        0.6918164797        0.6463681630
O             0.0004662108        0.0140777165        0.6986787516
O             0.4992733607        0.0061224431        0.6953997934
O             0.0016800906        0.4426075479        0.7311980216
O             0.4870208513        0.4928818838        0.7272274251
H             0.1354247864        0.4786903284        0.2516454915
H             0.1354247864        0.4786903284        0.7483545085
H            -0.0000746644        0.1631974525        0.2791441597
H            -0.0000746644        0.1631974525        0.7208558403
H             0.4985144249        0.0338197568        0.2611745204
H             0.4985144249        0.0338197568        0.7388254796



     Writing config-only to output data dir /storage/home/mgm6007/ixd4/Maria/Strain1_Files/RuO2-110-0-023/RuO2-110-0-023.save/
     NEW-OLD atomic charge density approx. for the potential

     Check: negative core charge=   -0.000001

     negative rho (up, down):  1.424E-04 0.000E+00

     add environment contribution to local potential
     Polarization accuracy = 5.9E-12, # of iterations =  45

     total cpu time spent up to now is    17435.4 secs

     per-process dynamical memory:   215.2 Mb

     Self-consistent Calculation

     iteration #  1     ecut=    50.00 Ry     beta= 0.70
     Davidson diagonalization with overlap
     ethr =  1.00E-06,  avg # of iterations =  2.0

     Threshold (ethr) on eigenvalues was too large:
     Diagonalizing with lowered threshold

     Davidson diagonalization with overlap
     ethr =  1.74E-08,  avg # of iterations =  2.0

     negative rho (up, down):  1.608E-04 0.000E+00

     add environment contribution to local potential
     Polarization accuracy = 6.8E-12, # of iterations =  46

     total cpu time spent up to now is    17586.7 secs

     total energy              =   -3435.12624173 Ry
     estimated scf accuracy    <       0.00006387 Ry
     electrostatic embedding   =      -0.05650747 Ry
     cavitation energy         =       0.02096348 Ry
     PV energy                 =      -0.08017320 Ry
     correction to one-el term =     191.19349545 Ry

     iteration #  2     ecut=    50.00 Ry     beta= 0.70
     Davidson diagonalization with overlap
     ethr =  1.75E-08,  avg # of iterations =  1.0

     negative rho (up, down):  1.605E-04 0.000E+00

     add environment contribution to local potential
     Polarization accuracy = 2.6E-12, # of iterations =  45

     total cpu time spent up to now is    17740.2 secs

     total energy              =   -3435.12624252 Ry
     estimated scf accuracy    <       0.00014287 Ry
     electrostatic embedding   =      -0.05650846 Ry
     cavitation energy         =       0.02096516 Ry
     PV energy                 =      -0.08017099 Ry
     correction to one-el term =     191.20763717 Ry

     iteration #  3     ecut=    50.00 Ry     beta= 0.70
     Davidson diagonalization with overlap
     ethr =  1.75E-08,  avg # of iterations =  1.0

     negative rho (up, down):  1.712E-04 0.000E+00

     add environment contribution to local potential
     Polarization accuracy = 4.7E-12, # of iterations =  45

     total cpu time spent up to now is    17891.7 secs

     total energy              =   -3435.12624948 Ry
     estimated scf accuracy    <       0.00001062 Ry
     electrostatic embedding   =      -0.05649008 Ry
     cavitation energy         =       0.02096485 Ry
     PV energy                 =      -0.08017228 Ry
     correction to one-el term =     191.20528021 Ry

     iteration #  4     ecut=    50.00 Ry     beta= 0.70
     Davidson diagonalization with overlap
     ethr =  2.90E-09,  avg # of iterations =  1.0

     negative rho (up, down):  1.776E-04 0.000E+00

     add environment contribution to local potential
     Polarization accuracy = 8.3E-12, # of iterations =  45

     total cpu time spent up to now is    18026.9 secs

     total energy              =   -3435.12624958 Ry
     estimated scf accuracy    <       0.00000384 Ry
     electrostatic embedding   =      -0.05647318 Ry
     cavitation energy         =       0.02096524 Ry
     PV energy                 =      -0.08017198 Ry
     correction to one-el term =     191.21287082 Ry

     iteration #  5     ecut=    50.00 Ry     beta= 0.70
     Davidson diagonalization with overlap
     ethr =  1.05E-09,  avg # of iterations =  1.0

     negative rho (up, down):  1.810E-04 0.000E+00

     add environment contribution to local potential
     Polarization accuracy = 2.8E-12, # of iterations =  45

     total cpu time spent up to now is    18164.0 secs

     total energy              =   -3435.12624964 Ry
     estimated scf accuracy    <       0.00000184 Ry
     electrostatic embedding   =      -0.05645538 Ry
     cavitation energy         =       0.02096531 Ry
     PV energy                 =      -0.08017209 Ry
     correction to one-el term =     191.21827795 Ry

     iteration #  6     ecut=    50.00 Ry     beta= 0.70
     Davidson diagonalization with overlap
     ethr =  5.02E-10,  avg # of iterations =  2.0

     negative rho (up, down):  1.794E-04 0.000E+00

     add environment contribution to local potential
     Polarization accuracy = 8.1E-12, # of iterations =  45

     total cpu time spent up to now is    18290.8 secs

     total energy              =   -3435.12624967 Ry
     estimated scf accuracy    <       0.00000039 Ry
     electrostatic embedding   =      -0.05643403 Ry
     cavitation energy         =       0.02096528 Ry
     PV energy                 =      -0.08017248 Ry
     correction to one-el term =     191.22292969 Ry

     iteration #  7     ecut=    50.00 Ry     beta= 0.70
     Davidson diagonalization with overlap
     ethr =  1.08E-10,  avg # of iterations =  2.0

     negative rho (up, down):  1.742E-04 0.000E+00

     add environment contribution to local potential
     Polarization accuracy = 2.7E-12, # of iterations =  46

     total cpu time spent up to now is    18413.0 secs

     total energy              =   -3435.12624963 Ry
     estimated scf accuracy    <       0.00000019 Ry
     electrostatic embedding   =      -0.05641879 Ry
     cavitation energy         =       0.02096518 Ry
     PV energy                 =      -0.08017293 Ry
     correction to one-el term =     191.22496768 Ry

     iteration #  8     ecut=    50.00 Ry     beta= 0.70
     Davidson diagonalization with overlap
     ethr =  5.18E-11,  avg # of iterations =  2.0

     negative rho (up, down):  1.684E-04 0.000E+00

     add environment contribution to local potential
     Polarization accuracy = 5.6E-12, # of iterations =  45

     total cpu time spent up to now is    18563.4 secs

     total energy              =   -3435.12624957 Ry
     estimated scf accuracy    <       0.00000004 Ry
     electrostatic embedding   =      -0.05639435 Ry
     cavitation energy         =       0.02096500 Ry
     PV energy                 =      -0.08017368 Ry
[...]
     atom   40 type  1   force =    -0.09362314   -0.04314071 -100.36912592
     atom   41 type  3   force =    -2.66676064   -0.78323373   16.52556638
     atom   42 type  3   force =    -2.66676064   -0.78323373  -16.52556638
     atom   43 type  3   force =     0.06126830   -1.54093551   16.94134376
     atom   44 type  3   force =     0.06126830   -1.54093551  -16.94134376
     atom   45 type  3   force =    -0.02076381    0.36534614   18.46750601
     atom   46 type  3   force =    -0.02076381    0.36534614  -18.46750601
     The core correction contribution to forces
     atom    1 type  1   force =    -0.01703426   -0.00358404   -0.00362387
     atom    2 type  1   force =    -0.00009690   -0.00026408   -0.01041451
     atom    3 type  1   force =    -0.00003044   -0.01323408   -0.00232677
     atom    4 type  1   force =     0.00009685    0.00230798    0.00921591
     atom    5 type  2   force =     0.00000000    0.00000000    0.00000000
     atom    6 type  2   force =     0.00000000    0.00000000    0.00000000
     atom    7 type  1   force =    -0.00070625    0.00000195    0.00197245
     atom    8 type  1   force =     0.00099374    0.00002703    0.00127420
     atom    9 type  2   force =     0.00000000    0.00000000    0.00000000
     atom   10 type  2   force =     0.00000000    0.00000000    0.00000000
     atom   11 type  1   force =    -0.00028933    0.00016724   -0.00038198
     atom   12 type  1   force =     0.00053853    0.00021568   -0.00089198
     atom   13 type  1   force =    -0.00014895   -0.00009282    0.00003920
     atom   14 type  1   force =    -0.00015141   -0.00071797   -0.00028916
     atom   15 type  1   force =    -0.00037931    0.00048590    0.00032521
     atom   16 type  1   force =    -0.00051195    0.00008955   -0.00265112
     atom   17 type  2   force =     0.00000000    0.00000000    0.00000000
     atom   18 type  2   force =     0.00000000    0.00000000    0.00000000
     atom   19 type  1   force =     0.00012669   -0.00054883   -0.00000205
     atom   20 type  1   force =     0.00051351   -0.00052210   -0.00000204
     atom   21 type  2   force =     0.00000000    0.00000000    0.00000000
     atom   22 type  2   force =     0.00000000    0.00000000    0.00000000
     atom   23 type  1   force =     0.00028525    0.00059782   -0.00000196
     atom   24 type  1   force =     0.00040006    0.00054476   -0.00000197
     atom   25 type  1   force =    -0.00037931    0.00048608   -0.00032748
     atom   26 type  1   force =    -0.00051187    0.00008951    0.00264904
     atom   27 type  1   force =    -0.00014895   -0.00009290   -0.00004141
     atom   28 type  1   force =    -0.00015141   -0.00071813    0.00028695
     atom   29 type  2   force =     0.00000000    0.00000000    0.00000000
     atom   30 type  2   force =     0.00000000    0.00000000    0.00000000
     atom   31 type  1   force =    -0.00070625    0.00000196   -0.00197425
     atom   32 type  1   force =     0.00099370    0.00002714   -0.00127609
     atom   33 type  2   force =     0.00000000    0.00000000    0.00000000
     atom   34 type  2   force =     0.00000000    0.00000000    0.00000000
     atom   35 type  1   force =    -0.00028922    0.00016716    0.00037998
     atom   36 type  1   force =     0.00053844    0.00021554    0.00089002
     atom   37 type  1   force =    -0.00003038   -0.01323596    0.00232308
     atom   38 type  1   force =     0.00009685    0.00230834   -0.00922169
     atom   39 type  1   force =    -0.01703504   -0.00358407    0.00362141
     atom   40 type  1   force =    -0.00009705   -0.00026406    0.01041271
     atom   41 type  3   force =     0.00000000    0.00000000    0.00000000
     atom   42 type  3   force =     0.00000000    0.00000000    0.00000000
     atom   43 type  3   force =     0.00000000    0.00000000    0.00000000
     atom   44 type  3   force =     0.00000000    0.00000000    0.00000000
     atom   45 type  3   force =     0.00000000    0.00000000    0.00000000
     atom   46 type  3   force =     0.00000000    0.00000000    0.00000000
     The Hubbard contrib.    to forces
     atom    1 type  1   force =     0.00000000    0.00000000    0.00000000
     atom    2 type  1   force =     0.00000000    0.00000000    0.00000000
     atom    3 type  1   force =     0.00000000    0.00000000    0.00000000
     atom    4 type  1   force =     0.00000000    0.00000000    0.00000000
     atom    5 type  2   force =     0.00000000    0.00000000    0.00000000
     atom    6 type  2   force =     0.00000000    0.00000000    0.00000000
     atom    7 type  1   force =     0.00000000    0.00000000    0.00000000
     atom    8 type  1   force =     0.00000000    0.00000000    0.00000000
     atom    9 type  2   force =     0.00000000    0.00000000    0.00000000
     atom   10 type  2   force =     0.00000000    0.00000000    0.00000000
     atom   11 type  1   force =     0.00000000    0.00000000    0.00000000
     atom   12 type  1   force =     0.00000000    0.00000000    0.00000000
     atom   13 type  1   force =     0.00000000    0.00000000    0.00000000
     atom   14 type  1   force =     0.00000000    0.00000000    0.00000000
     atom   15 type  1   force =     0.00000000    0.00000000    0.00000000
     atom   16 type  1   force =     0.00000000    0.00000000    0.00000000
     atom   17 type  2   force =     0.00000000    0.00000000    0.00000000
     atom   18 type  2   force =     0.00000000    0.00000000    0.00000000
     atom   19 type  1   force =     0.00000000    0.00000000    0.00000000
     atom   20 type  1   force =     0.00000000    0.00000000    0.00000000
     atom   21 type  2   force =     0.00000000    0.00000000    0.00000000
     atom   22 type  2   force =     0.00000000    0.00000000    0.00000000
     atom   23 type  1   force =     0.00000000    0.00000000    0.00000000
     atom   24 type  1   force =     0.00000000    0.00000000    0.00000000
     atom   25 type  1   force =     0.00000000    0.00000000    0.00000000
     atom   26 type  1   force =     0.00000000    0.00000000    0.00000000
     atom   27 type  1   force =     0.00000000    0.00000000    0.00000000
     atom   28 type  1   force =     0.00000000    0.00000000    0.00000000
     atom   29 type  2   force =     0.00000000    0.00000000    0.00000000
     atom   30 type  2   force =     0.00000000    0.00000000    0.00000000
     atom   31 type  1   force =     0.00000000    0.00000000    0.00000000
     atom   32 type  1   force =     0.00000000    0.00000000    0.00000000
     atom   33 type  2   force =     0.00000000    0.00000000    0.00000000
     atom   34 type  2   force =     0.00000000    0.00000000    0.00000000
     atom   35 type  1   force =     0.00000000    0.00000000    0.00000000
     atom   36 type  1   force =     0.00000000    0.00000000    0.00000000
     atom   37 type  1   force =     0.00000000    0.00000000    0.00000000
     atom   38 type  1   force =     0.00000000    0.00000000    0.00000000
     atom   39 type  1   force =     0.00000000    0.00000000    0.00000000
     atom   40 type  1   force =     0.00000000    0.00000000    0.00000000
     atom   41 type  3   force =     0.00000000    0.00000000    0.00000000
     atom   42 type  3   force =     0.00000000    0.00000000    0.00000000
     atom   43 type  3   force =     0.00000000    0.00000000    0.00000000
     atom   44 type  3   force =     0.00000000    0.00000000    0.00000000
     atom   45 type  3   force =     0.00000000    0.00000000    0.00000000
     atom   46 type  3   force =     0.00000000    0.00000000    0.00000000
     The SCF correction term to forces
     atom    1 type  1   force =     0.00000096    0.00000075   -0.00000145
     atom    2 type  1   force =    -0.00000133    0.00000072   -0.00000088
     atom    3 type  1   force =     0.00000165   -0.00000089   -0.00000099
     atom    4 type  1   force =    -0.00000107    0.00000006   -0.00000100
     atom    5 type  2   force =     0.00000017   -0.00000123   -0.00000285
     atom    6 type  2   force =    -0.00000034   -0.00000096   -0.00000170
     atom    7 type  1   force =     0.00000042   -0.00000031   -0.00000091
     atom    8 type  1   force =    -0.00000029    0.00000028   -0.00000012
     atom    9 type  2   force =     0.00000182    0.00000121   -0.00000235
     atom   10 type  2   force =    -0.00000222    0.00000083   -0.00000138
     atom   11 type  1   force =     0.00000036    0.00000066   -0.00000117
     atom   12 type  1   force =    -0.00000009   -0.00000005   -0.00000085
     atom   13 type  1   force =     0.00000075   -0.00000032   -0.00000152
     atom   14 type  1   force =    -0.00000066   -0.00000034   -0.00000032
     atom   15 type  1   force =    -0.00000111    0.00000027   -0.00000039
     atom   16 type  1   force =     0.00000072    0.00000015   -0.00000013
     atom   17 type  2   force =    -0.00000057   -0.00000043   -0.00000007
     atom   18 type  2   force =     0.00000051   -0.00000024   -0.00000007
     atom   19 type  1   force =     0.00000126   -0.00000048   -0.00000003
     atom   20 type  1   force =    -0.00000138    0.00000123   -0.00000002
     atom   21 type  2   force =     0.00000178    0.00000047   -0.00000007
     atom   22 type  2   force =    -0.00000139    0.00000046   -0.00000006
     atom   23 type  1   force =     0.00000125    0.00000042   -0.00000003
     atom   24 type  1   force =    -0.00000131   -0.00000129   -0.00000002
     atom   25 type  1   force =    -0.00000111    0.00000027    0.00000035
     atom   26 type  1   force =     0.00000072    0.00000015    0.00000009
     atom   27 type  1   force =     0.00000075   -0.00000032    0.00000148
     atom   28 type  1   force =    -0.00000066   -0.00000035    0.00000028
     atom   29 type  2   force =     0.00000018   -0.00000124    0.00000280
     atom   30 type  2   force =    -0.00000035   -0.00000097    0.00000165
     atom   31 type  1   force =     0.00000042   -0.00000030    0.00000089
     atom   32 type  1   force =    -0.00000030    0.00000029    0.00000010
     atom   33 type  2   force =     0.00000181    0.00000122    0.00000230
     atom   34 type  2   force =    -0.00000221    0.00000084    0.00000133
     atom   35 type  1   force =     0.00000036    0.00000066    0.00000115
     atom   36 type  1   force =    -0.00000009   -0.00000005    0.00000084
     atom   37 type  1   force =     0.00000165   -0.00000089    0.00000100
     atom   38 type  1   force =    -0.00000107    0.00000006    0.00000100
     atom   39 type  1   force =     0.00000096    0.00000075    0.00000146
     atom   40 type  1   force =    -0.00000133    0.00000072    0.00000089
     atom   41 type  3   force =     0.00000005    0.00000007   -0.00000017
     atom   42 type  3   force =     0.00000005    0.00000007    0.00000017
     atom   43 type  3   force =     0.00000017   -0.00000008   -0.00000020
     atom   44 type  3   force =     0.00000017   -0.00000008    0.00000020
     atom   45 type  3   force =    -0.00000013   -0.00000003   -0.00000011
     atom   46 type  3   force =    -0.00000013   -0.00000003    0.00000012

     Total force =     0.002055     Total SCF correction =     0.000011
     Energy error            =      5.6E-06 Ry
     Gradient error          =      8.5E-04 Ry/Bohr

     number of scf cycles    =  34
     number of bfgs steps    =  33

     energy             old  =   -3435.1271634870 Ry
     energy             new  =   -3435.1271691260 Ry

     CASE: energy            _new < energy            _old

     new trust radius        =       0.0055926023 bohr
     new conv_thr            =            1.0E-11 Ry


ATOMIC_POSITIONS (crystal)
O             0.0040682235        0.4477724223        0.2688715784
O             0.4850430619        0.4961167667        0.2725595449
O             0.0001982162        0.0151140347        0.3011791895
O             0.4989870527        0.0078966835        0.3045882703
Ru            0.2493487250        0.0046924100        0.3588073045
Ru            0.7499416104        0.0043047709        0.3585206996
O             0.2488336806        0.3167027565        0.3626949964
O             0.7492914728        0.3169698925        0.3600241618
Ru           -0.0007149338        0.5036593988        0.3576427310
Ru            0.4999832542        0.5036503060        0.3507607983
O             0.2416951462        0.6943149070        0.3545026749
O             0.7553913437        0.6923288291        0.3534652383
O            -0.0008515670        0.0041112296        0.4110207495
O             0.5008199331        0.0006530259        0.4117244396
O            -0.0034278869        0.5141921836        0.4462400801
O             0.4963248777        0.5156880558        0.4428209939
Ru            0.0020828392        0.0125966177        0.5000010000
Ru            0.5025729443        0.0135838784        0.5000010000
O             0.2543405107        0.1999926382        0.5000010000
O             0.7540388473        0.1995778995        0.5000010000
Ru            0.2459165579        0.5140399801        0.5000010000
Ru            0.7417088781        0.5137006821        0.5000010000
O             0.2544178000        0.8277587758        0.5000010000
O             0.7541073557        0.8273486444        0.5000010000
O            -0.0034278869        0.5141921836        0.5537609199
O             0.4963248777        0.5156880558        0.5571800061
O            -0.0008515670        0.0041112296        0.5889802505
O             0.5008199331        0.0006530259        0.5882765604
Ru            0.2493487250        0.0046924100        0.6411936955
Ru            0.7499416104        0.0043047709        0.6414803004
O             0.2488336806        0.3167027565        0.6373060036
O             0.7492914728        0.3169698925        0.6399768382
Ru           -0.0007149338        0.5036593988        0.6423582690
Ru            0.4999832542        0.5036503060        0.6492402017
O             0.2416951462        0.6943149070        0.6454983251
O             0.7553913437        0.6923288291        0.6465357617
O             0.0001982162        0.0151140347        0.6988228105
O             0.4989870527        0.0078966835        0.6954137297
O             0.0040682235        0.4477724223        0.7311294216
O             0.4850430619        0.4961167667        0.7274414551
H             0.1393447002        0.4835866521        0.2527109173
H             0.1393447002        0.4835866521        0.7472890827
H             0.0001841196        0.1625062995        0.2784972782
H             0.0001841196        0.1625062995        0.7215027218
H             0.4985811036       -0.0101271824        0.2607497290
H             0.4985811036       -0.0101271824        0.7392502710



     Writing config-only to output data dir /storage/home/mgm6007/ixd4/Maria/Strain1_Files/RuO2-110-0-023/RuO2-110-0-023.save/
     NEW-OLD atomic charge density approx. for the potential

     Check: negative core charge=   -0.000001

     negative rho (up, down):  1.409E-04 0.000E+00

     add environment contribution to local potential
     Polarization accuracy = 4.5E-12, # of iterations =  45

     total cpu time spent up to now is   206433.4 secs

     per-process dynamical memory:   215.2 Mb

     Self-consistent Calculation

     iteration #  1     ecut=    50.00 Ry     beta= 0.70
     Davidson diagonalization with overlap
     ethr =  1.00E-06,  avg # of iterations =  2.0

     Threshold (ethr) on eigenvalues was too large:
     Diagonalizing with lowered threshold

     Davidson diagonalization with overlap
     ethr =  1.32E-09,  avg # of iterations =  3.0

     negative rho (up, down):  1.416E-04 0.000E+00

     add environment contribution to local potential
     Polarization accuracy = 9.4E-12, # of iterations =  46

     total cpu time spent up to now is   206562.1 secs

     total energy              =   -3435.12716931 Ry
     estimated scf accuracy    <       0.00000470 Ry
     electrostatic embedding   =      -0.05652968 Ry
     cavitation energy         =       0.02097340 Ry
     PV energy                 =      -0.08021358 Ry
     correction to one-el term =     190.76552061 Ry

     iteration #  2     ecut=    50.00 Ry     beta= 0.70
     Davidson diagonalization with overlap
     ethr =  1.28E-09,  avg # of iterations =  2.0

     negative rho (up, down):  1.409E-04 0.000E+00

     add environment contribution to local potential
     Polarization accuracy = 6.2E-12, # of iterations =  45

     total cpu time spent up to now is   206693.3 secs

     total energy              =   -3435.12717074 Ry
     estimated scf accuracy    <       0.00000627 Ry
     electrostatic embedding   =      -0.05654296 Ry
     cavitation energy         =       0.02097363 Ry
     PV energy                 =      -0.08021314 Ry
     correction to one-el term =     190.76589858 Ry

     iteration #  3     ecut=    50.00 Ry     beta= 0.70
     Davidson diagonalization with overlap
     ethr =  1.28E-09,  avg # of iterations =  2.0

     negative rho (up, down):  1.408E-04 0.000E+00

     add environment contribution to local potential
     Polarization accuracy = 5.0E-12, # of iterations =  46

     total cpu time spent up to now is   206843.1 secs

     total energy              =   -3435.12717139 Ry
     estimated scf accuracy    <       0.00000125 Ry
     electrostatic embedding   =      -0.05654561 Ry
     cavitation energy         =       0.02097356 Ry
     PV energy                 =      -0.08021334 Ry
     correction to one-el term =     190.76491416 Ry

     iteration #  4     ecut=    50.00 Ry     beta= 0.70
     Davidson diagonalization with overlap
     ethr =  3.41E-10,  avg # of iterations =  2.0

     negative rho (up, down):  1.406E-04 0.000E+00

     add environment contribution to local potential
     Polarization accuracy = 4.8E-12, # of iterations =  46

     total cpu time spent up to now is   206966.4 secs

     total energy              =   -3435.12717191 Ry
     estimated scf accuracy    <       0.00000025 Ry
     electrostatic embedding   =      -0.05655665 Ry
     cavitation energy         =       0.02097359 Ry
     PV energy                 =      -0.08021329 Ry
     correction to one-el term =     190.76439528 Ry

     iteration #  5     ecut=    50.00 Ry     beta= 0.70
     Davidson diagonalization with overlap
     ethr =  6.72E-11,  avg # of iterations =  2.0

     negative rho (up, down):  1.404E-04 0.000E+00

     add environment contribution to local potential
     Polarization accuracy = 7.8E-12, # of iterations =  46

     total cpu time spent up to now is   207113.4 secs

     total energy              =   -3435.12717206 Ry
     estimated scf accuracy    <       0.00000011 Ry
     electrostatic embedding   =      -0.05656218 Ry
     cavitation energy         =       0.02097358 Ry
     PV energy                 =      -0.08021330 Ry
     correction to one-el term =     190.76403022 Ry

     iteration #  6     ecut=    50.00 Ry     beta= 0.70
     Davidson diagonalization with overlap
     ethr =  2.91E-11,  avg # of iterations =  2.0

     negative rho (up, down):  1.401E-04 0.000E+00

     add environment contribution to local potential
     Polarization accuracy = 9.5E-12, # of iterations =  46

     total cpu time spent up to now is   207254.0 secs

     total energy              =   -3435.12717211 Ry
     estimated scf accuracy    <       0.00000003 Ry
     electrostatic embedding   =      -0.05656649 Ry
     cavitation energy         =       0.02097355 Ry
     PV energy                 =      -0.08021333 Ry
     correction to one-el term =     190.76358607 Ry

     iteration #  7     ecut=    50.00 Ry     beta= 0.70
     Davidson diagonalization with overlap
     ethr =  7.90E-12,  avg # of iterations =  3.0

     negative rho (up, down):  1.398E-04 0.000E+00

     add environment contribution to local potential
     Polarization accuracy = 8.0E-12, # of iterations =  45
