
     Program PWSCF v.7.2 starts on 20Jul2023 at 14:59:56 
        Git branch: heads/qe-7.2
        Last git commit: b4c5e8deeb7d1863e7553a87b45f8d22c21926a5
        Last git commit date: Mon Mar 27 16:12:09 2023 +0000
        Last git commit subject: Merge branch 'merge_fix_hubbard' into 'develop'

     This program is part of the open-source Quantum ESPRESSO suite
     for quantum simulation of materials; please cite
         "P. Giannozzi et al., J. Phys.:Condens. Matter 21 395502 (2009);
         "P. Giannozzi et al., J. Phys.:Condens. Matter 29 465901 (2017);
         "P. Giannozzi et al., J. Chem. Phys. 152 154105 (2020);
          URL http://www.quantum-espresso.org", 
     in publications or presentations arising from this work. More details at
     http://www.quantum-espresso.org/quote

     Parallel version (MPI), running on    20 processors

     MPI processes distributed on     1 nodes
     106865 MiB available memory on the printing compute node when the environment starts
 
     Reading input from RuO2-110-0-0234.in

     Current dimensions of program PWSCF are:
     Max number of different atomic species (ntypx) = 10
     Max number of k-points (npk) =  40000
     Max angular momentum in pseudopotentials (lmaxx) =  4
 
     Reading input from environ.in:
     * Environ restarting
     * setting up water environment
     * using electronic solvent mode
     * setting boundary derivatives method to SCCS default
     
     file O.pbe-n-kjpaw_psl.0.1.UPF: wavefunction(s)  2P renormalized
     Message from routine setup:
     using ibrav=0 with symmetry is DISCOURAGED, use correct ibrav instead
 
     R & G space division:  proc/nbgrp/npool/nimage =      20
     Subspace diagonalization in iterative solution of the eigenvalue problem:
     one sub-group per band group will be used
     scalapack distributed-memory algorithm (size of sub-group:  2*  2 procs)

 
     Parallelization info
     --------------------
     sticks:   dense  smooth     PW     G-vecs:    dense   smooth      PW
     Min         282     113     29                56190    14217    1913
     Max         283     114     30                56201    14227    1932
     Sum        5657    2263    593              1123933   284439   38425
 
     Using Slab Decomposition
 


     bravais-lattice index     =            0
     lattice parameter (alat)  =      12.1041  a.u.
     unit-cell volume          =    5954.5483 (a.u.)^3
     number of atoms/cell      =           48
     number of atomic types    =            3
     number of electrons       =       368.00
     number of Kohn-Sham states=          221
     kinetic-energy cutoff     =      50.0000  Ry
     charge density cutoff     =     500.0000  Ry
     scf convergence threshold =      1.0E-09
     mixing beta               =       0.7000
     number of iterations used =            8  local-TF  mixing
     energy convergence thresh.=      1.0E-04
     force convergence thresh. =      1.0E-04
     Exchange-correlation= PBE
                           (   1   4   3   4   0   0   0)
     nstep                     =          200


     ================================================================================
 
                                  Environ Setup Summary

     ================================================================================
 
     Please cite

          O. Andreussi, I. Dabo and N. Marzari, J. Chem. Phys. 136, 064102 (2012)

     in publications or presentations arising from this work.

     ================================================================================
 
     Parameters
     ==========

     compensation onset threshold      =               0.1000E+00
     static permittivity               =                    78.30
     surface tension in input (dyn/cm) =                    47.90
     surface tension in internal units =               0.6153E-04
     external pressure in input (GPa)  =                    -0.36
     external pressure in inter. units =              -0.2447E-04

     Solvent Boundary
     ================

     solvent mode                      =               electronic
     derivatives method                =                    chain
     numerical core for derivatives    =                      fft
     switching function adopted        =                     SCCS
     density limit for vacuum region   =               0.5000E-02
     density limit for bulk solvent    =               0.1000E-03

     Electrostatic Setup
     ===================

     electrostatic problem to solve    =              generalized
     numerical solver adopted          =                       cg
     type of auxiliary density adopted =                     none
     numerical core for poisson        =                      fft
     type of pbc corrections           =                parabolic
     numerical core for corrections    =                      1da

     ================================================================================
 

     celldm(1)=  12.104053  celldm(2)=   0.000000  celldm(3)=   0.000000
     celldm(4)=   0.000000  celldm(5)=   0.000000  celldm(6)=   0.000000

     crystal axes: (cart. coord. in units of alat)
               a(1) = (   1.000000   0.000000   0.000000 )  
               a(2) = (   0.000000   0.971735   0.000000 )  
               a(3) = (   0.000000   0.000000   3.455479 )  

     reciprocal axes: (cart. coord. in units 2 pi/alat)
               b(1) = (  1.000000  0.000000  0.000000 )  
               b(2) = (  0.000000  1.029087  0.000000 )  
               b(3) = (  0.000000  0.000000  0.289395 )  


     PseudoPot. # 1 for O  read from file:
     /gpfs/group/ixd4/default/Simon/pseudopotentials/materialscloud/SSSP_1.3.0_PBE_efficiency/O.pbe-n-kjpaw_psl.0.1.UPF
     MD5 check sum: 0234752ac141de4415c5fc33072bef88
     Pseudo is Projector augmented-wave + core cor, Zval =  6.0
     Generated using "atomic" code by A. Dal Corso  v.5.0.99 svn rev. 10869
     Shape of augmentation charge: BESSEL
     Using radial grid of 1095 points,  4 beta functions with: 
                l(1) =   0
                l(2) =   0
                l(3) =   1
                l(4) =   1
     Q(r) pseudized with 0 coefficients 


     PseudoPot. # 2 for Ru read from file:
     /gpfs/group/ixd4/default/Simon/pseudopotentials/materialscloud/SSSP_1.3.0_PBE_efficiency/Ru_ONCV_PBE-1.0.oncvpsp.upf
     MD5 check sum: be037bb81c227cfb9b1461a9f099f4bd
     Pseudo is Norm-conserving, Zval = 16.0
     Generated using ONCVPSP code by D. R. Hamann
     Using radial grid of 1458 points,  6 beta functions with: 
                l(1) =   0
                l(2) =   0
                l(3) =   1
                l(4) =   1
                l(5) =   2
                l(6) =   2

     PseudoPot. # 3 for H  read from file:
     /gpfs/group/ixd4/default/Simon/pseudopotentials/materialscloud/SSSP_1.3.0_PBE_efficiency/H.pbe-rrkjus_psl.1.0.0.UPF
     MD5 check sum: f52b6d4d1c606e5624b1dc7b2218f220
     Pseudo is Ultrasoft, Zval =  1.0
     Generated using "atomic" code by A. Dal Corso  v.5.1
     Using radial grid of  929 points,  2 beta functions with: 
                l(1) =   0
                l(2) =   0
     Q(r) pseudized with 0 coefficients 


     atomic species   valence    mass     pseudopotential
        O              6.00    15.99940     O ( 1.00)
        Ru            16.00   101.07000     Ru( 1.00)
        H              1.00     1.00794     H ( 1.00)

      2 Sym. Ops. (no inversion) found



   Cartesian axes

     site n.     atom                  positions (alat units)
         1           O   tau(   1) = (   0.0366874   0.4319215   0.9099018  )
         2           O   tau(   2) = (   0.4668626   0.4538755   0.9412233  )
         3           O   tau(   3) = (  -0.0033496   0.0124849   1.0286951  )
         4           O   tau(   4) = (   0.4942207   0.0003795   1.0383067  )
         5           Ru  tau(   5) = (   0.2448459  -0.0076625   1.2410175  )
         6           Ru  tau(   6) = (   0.7461415  -0.0077625   1.2378558  )
         7           O   tau(   7) = (   0.2426407   0.2845178   1.2504263  )
         8           O   tau(   8) = (   0.7512520   0.2896971   1.2364774  )
         9           Ru  tau(   9) = (   0.0008428   0.4766529   1.2479659  )
        10           Ru  tau(  10) = (   0.5001680   0.4776523   1.2145388  )
        11           O   tau(  11) = (   0.2401917   0.6714472   1.2283543  )
        12           O   tau(  12) = (   0.7525169   0.6659246   1.2202397  )
        13           O   tau(  13) = (  -0.0069500  -0.0104699   1.4235042  )
        14           O   tau(  14) = (   0.4975397  -0.0091425   1.4221928  )
        15           O   tau(  15) = (  -0.0064013   0.4872131   1.5433670  )
        16           O   tau(  16) = (   0.4917455   0.4867852   1.5239025  )
        17           Ru  tau(  17) = (  -0.0086942  -0.0014421   1.7277432  )
        18           Ru  tau(  18) = (   0.4968866  -0.0014842   1.7277432  )
        19           O   tau(  19) = (   0.2452539   0.1845938   1.7277432  )
        20           O   tau(  20) = (   0.7425586   0.1912972   1.7277432  )
        21           Ru  tau(  21) = (   0.2506428   0.4854259   1.7277432  )
        22           Ru  tau(  22) = (   0.7392137   0.4853199   1.7277432  )
        23           O   tau(  23) = (   0.2460548   0.7853536   1.7277432  )
        24           O   tau(  24) = (   0.7419649   0.7786452   1.7277432  )
        25           O   tau(  25) = (  -0.0064013   0.4872131   1.9121159  )
        26           O   tau(  26) = (   0.4917455   0.4867852   1.9315805  )
        27           O   tau(  27) = (  -0.0069500  -0.0104699   2.0319788  )
        28           O   tau(  28) = (   0.4975397  -0.0091425   2.0332902  )
        29           Ru  tau(  29) = (   0.2448459  -0.0076625   2.2144655  )
        30           Ru  tau(  30) = (   0.7461415  -0.0077625   2.2176272  )
        31           O   tau(  31) = (   0.2426407   0.2845178   2.2050566  )
        32           O   tau(  32) = (   0.7512520   0.2896971   2.2190055  )
        33           Ru  tau(  33) = (   0.0008428   0.4766529   2.2075171  )
        34           Ru  tau(  34) = (   0.5001680   0.4776523   2.2409441  )
        35           O   tau(  35) = (   0.2401917   0.6714472   2.2271286  )
        36           O   tau(  36) = (   0.7525169   0.6659246   2.2352433  )
        37           O   tau(  37) = (  -0.0033496   0.0124849   2.4267913  )
        38           O   tau(  38) = (   0.4942207   0.0003795   2.4171797  )
        39           O   tau(  39) = (   0.0366874   0.4319215   2.5455812  )
        40           O   tau(  40) = (   0.4668626   0.4538755   2.5142596  )
        41           H   tau(  41) = (   0.1929543   0.4425957   0.8922304  )
        42           H   tau(  42) = (   0.1929543   0.4425957   2.5632491  )
        43           H   tau(  43) = (   0.0077343   0.2884524   0.8990705  )
        44           H   tau(  44) = (   0.0077343   0.2884524   2.5564090  )
        45           H   tau(  45) = (   0.4930952   0.1142268   0.9437222  )
        46           H   tau(  46) = (   0.4930952   0.1142268   2.5117573  )
        47           H   tau(  47) = (  -0.0020440   0.8822281   0.9209301  )
        48           H   tau(  48) = (  -0.0020440   0.8822281   2.5345494  )

     number of k points=     2  Marzari-Vanderbilt smearing, width (Ry)=  0.0300
                       cart. coord. in units 2pi/alat
        k(    1) = (   0.2500000   0.2572717   0.0000000), wk =   1.0000000
        k(    2) = (  -0.2500000   0.2572717   0.0000000), wk =   1.0000000

     Dense  grid:  1123933 G-vectors     FFT dimensions: (  90,  90, 300)

     Smooth grid:   284439 G-vectors     FFT dimensions: (  60,  54, 192)

     Estimated max dynamical RAM per process >     185.04 MB

     Estimated total dynamical RAM >       3.61 GB

     Check: negative core charge=   -0.000001

     Initial potential from superposition of free atoms

     starting charge     367.9933, renormalised to     368.0000

     add environment contribution to local potential
     Polarization accuracy = 2.6E-12, # of iterations =  26

     negative rho (up, down):  3.158E-05 0.000E+00
     Starting wfcs are  240 randomized atomic wfcs
     Checking if some PAW data can be deallocated... 

     total cpu time spent up to now is     1031.1 secs

     per-process dynamical memory:   157.6 Mb

     Self-consistent Calculation

     iteration #  1     ecut=    50.00 Ry     beta= 0.70
     Davidson diagonalization with overlap
     ethr =  1.00E-02,  avg # of iterations =  2.0

     negative rho (up, down):  1.691E-08 0.000E+00

     total cpu time spent up to now is     1334.5 secs

     total energy              =   -3435.63425559 Ry
     estimated scf accuracy    <       9.12773020 Ry
     electrostatic embedding   =      -0.00179519 Ry
     cavitation energy         =       0.01975743 Ry
     PV energy                 =      -0.08677706 Ry
     correction to one-el term =     218.74759912 Ry

     iteration #  2     ecut=    50.00 Ry     beta= 0.70
     Davidson diagonalization with overlap
     ethr =  2.48E-03,  avg # of iterations =  2.0

     total cpu time spent up to now is     1640.4 secs

     total energy              =   -3437.60230377 Ry
     estimated scf accuracy    <       2.04171506 Ry
     electrostatic embedding   =      -0.00286471 Ry
     cavitation energy         =       0.01962281 Ry
     PV energy                 =      -0.08771276 Ry
     correction to one-el term =     218.75096684 Ry

     iteration #  3     ecut=    50.00 Ry     beta= 0.70
     Davidson diagonalization with overlap
     ethr =  5.55E-04,  avg # of iterations =  5.0

     total cpu time spent up to now is     1962.9 secs

     total energy              =   -3437.77413997 Ry
     estimated scf accuracy    <       0.39392913 Ry
     electrostatic embedding   =      -0.00327991 Ry
     cavitation energy         =       0.01972155 Ry
     PV energy                 =      -0.08783394 Ry
     correction to one-el term =     218.75201327 Ry

     iteration #  4     ecut=    50.00 Ry     beta= 0.70
     Davidson diagonalization with overlap
     ethr =  1.07E-04,  avg # of iterations =  2.0

     total cpu time spent up to now is     2283.9 secs

     total energy              =   -3437.81268863 Ry
     estimated scf accuracy    <       0.69988107 Ry
     electrostatic embedding   =      -0.00342438 Ry
     cavitation energy         =       0.01998228 Ry
     PV energy                 =      -0.08729186 Ry
     correction to one-el term =     218.75198859 Ry

     iteration #  5     ecut=    50.00 Ry     beta= 0.70
     Davidson diagonalization with overlap
     ethr =  1.07E-04,  avg # of iterations =  1.0

     total cpu time spent up to now is     2603.0 secs

     total energy              =   -3437.79985665 Ry
     estimated scf accuracy    <       0.25613041 Ry
     electrostatic embedding   =      -0.00356694 Ry
     cavitation energy         =       0.02029848 Ry
     PV energy                 =      -0.08677945 Ry
     correction to one-el term =     218.75202481 Ry

     iteration #  6     ecut=    50.00 Ry     beta= 0.70
     Davidson diagonalization with overlap
     ethr =  6.96E-05,  avg # of iterations =  5.0

     total cpu time spent up to now is     2919.4 secs

     total energy              =   -3437.79339013 Ry
     estimated scf accuracy    <       0.14531956 Ry
     electrostatic embedding   =      -0.00362618 Ry
     cavitation energy         =       0.02120350 Ry
     PV energy                 =      -0.08518494 Ry
     correction to one-el term =     218.75137408 Ry

     iteration #  7     ecut=    50.00 Ry     beta= 0.70
     Davidson diagonalization with overlap
     ethr =  3.95E-05,  avg # of iterations =  2.0

     total cpu time spent up to now is     3219.2 secs

     total energy              =   -3437.78404283 Ry
     estimated scf accuracy    <       0.10127200 Ry
     electrostatic embedding   =      -0.00348925 Ry
     cavitation energy         =       0.02172981 Ry
     PV energy                 =      -0.08409976 Ry
     correction to one-el term =     218.75053728 Ry

     iteration #  8     ecut=    50.00 Ry     beta= 0.70
     Davidson diagonalization with overlap
     ethr =  2.75E-05,  avg # of iterations = 11.0

     negative rho (up, down):  1.285E-05 0.000E+00

     add environment contribution to local potential
     Polarization accuracy = 8.6E-12, # of iterations =  53

     total cpu time spent up to now is     3574.7 secs

     total energy              =   -3437.78036166 Ry
     estimated scf accuracy    <       0.04941028 Ry
     electrostatic embedding   =      -0.00310447 Ry
     cavitation energy         =       0.02252069 Ry
     PV energy                 =      -0.08252906 Ry
     correction to one-el term =     218.74874220 Ry

     iteration #  9     ecut=    50.00 Ry     beta= 0.70
     Davidson diagonalization with overlap
     ethr =  1.34E-05,  avg # of iterations =  8.0

     negative rho (up, down):  4.966E-05 0.000E+00

     total cpu time spent up to now is     3873.3 secs

     total energy              =   -3437.81613327 Ry
     estimated scf accuracy    <       0.12448879 Ry
     electrostatic embedding   =      -0.04628780 Ry
     cavitation energy         =       0.02261445 Ry
     PV energy                 =      -0.08207296 Ry
     correction to one-el term =     173.77115914 Ry

     iteration # 10     ecut=    50.00 Ry     beta= 0.70
     Davidson diagonalization with overlap
     ethr =  1.34E-05,  avg # of iterations =  1.0

     negative rho (up, down):  1.636E-05 0.000E+00

     add environment contribution to local potential
     Polarization accuracy = 3.2E-12, # of iterations =  51

     total cpu time spent up to now is     4175.0 secs

     total energy              =   -3437.80989821 Ry
     estimated scf accuracy    <       0.05700323 Ry
     electrostatic embedding   =      -0.04639457 Ry
     cavitation energy         =       0.02257087 Ry
     PV energy                 =      -0.08205398 Ry
     correction to one-el term =     173.77167712 Ry

     iteration # 11     ecut=    50.00 Ry     beta= 0.70
     Davidson diagonalization with overlap
     ethr =  1.34E-05,  avg # of iterations =  2.0

     negative rho (up, down):  1.521E-05 0.000E+00

     add environment contribution to local potential
     Polarization accuracy = 3.9E-12, # of iterations =  51

     total cpu time spent up to now is     4512.8 secs

     total energy              =   -3437.81450288 Ry
     estimated scf accuracy    <       0.00990633 Ry
     electrostatic embedding   =      -0.04844051 Ry
     cavitation energy         =       0.02233459 Ry
     PV energy                 =      -0.08214362 Ry
     correction to one-el term =     175.04855544 Ry

     iteration # 12     ecut=    50.00 Ry     beta= 0.70
     Davidson diagonalization with overlap
     ethr =  2.69E-06,  avg # of iterations =  5.0

     negative rho (up, down):  1.166E-03 0.000E+00

     add environment contribution to local potential
     Polarization accuracy = 3.0E-12, # of iterations =  50

     total cpu time spent up to now is     4842.5 secs

     total energy              =   -3437.81481282 Ry
     estimated scf accuracy    <       0.00680873 Ry
     electrostatic embedding   =      -0.04845861 Ry
     cavitation energy         =       0.02217234 Ry
     PV energy                 =      -0.08226943 Ry
     correction to one-el term =     176.11437416 Ry

     iteration # 13     ecut=    50.00 Ry     beta= 0.70
     Davidson diagonalization with overlap
     ethr =  1.85E-06,  avg # of iterations =  4.5

     negative rho (up, down):  5.990E-04 0.000E+00

     add environment contribution to local potential
     Polarization accuracy = 8.8E-12, # of iterations =  48

     total cpu time spent up to now is     5139.2 secs

     total energy              =   -3437.81679133 Ry
     estimated scf accuracy    <       0.00251884 Ry
     electrostatic embedding   =      -0.05099665 Ry
     cavitation energy         =       0.02207089 Ry
     PV energy                 =      -0.08227305 Ry
     correction to one-el term =     176.86699119 Ry

     iteration # 14     ecut=    50.00 Ry     beta= 0.70
     Davidson diagonalization with overlap
     ethr =  6.84E-07,  avg # of iterations =  6.0

     negative rho (up, down):  9.305E-05 0.000E+00

     add environment contribution to local potential
     Polarization accuracy = 1.0E-11, # of iterations =  46

     total cpu time spent up to now is     5444.6 secs

     total energy              =   -3437.81780382 Ry
     estimated scf accuracy    <       0.00355843 Ry
     electrostatic embedding   =      -0.05133825 Ry
     cavitation energy         =       0.02186207 Ry
     PV energy                 =      -0.08251835 Ry
     correction to one-el term =     178.44430929 Ry

     iteration # 15     ecut=    50.00 Ry     beta= 0.70
     Davidson diagonalization with overlap
     ethr =  6.84E-07,  avg # of iterations =  6.0

     add environment contribution to local potential
     Polarization accuracy = 6.7E-12, # of iterations =  47

     total cpu time spent up to now is     5785.4 secs

     total energy              =   -3437.81794566 Ry
     estimated scf accuracy    <       0.00345346 Ry
     electrostatic embedding   =      -0.05081551 Ry
     cavitation energy         =       0.02178296 Ry
     PV energy                 =      -0.08265438 Ry
     correction to one-el term =     179.34290245 Ry

     iteration # 16     ecut=    50.00 Ry     beta= 0.70
     Davidson diagonalization with overlap
     ethr =  6.84E-07,  avg # of iterations =  5.0

     add environment contribution to local potential
     Polarization accuracy = 4.8E-12, # of iterations =  47

     total cpu time spent up to now is     6073.1 secs

     total energy              =   -3437.81824008 Ry
     estimated scf accuracy    <       0.00064433 Ry
     electrostatic embedding   =      -0.04951574 Ry
     cavitation energy         =       0.02179280 Ry
     PV energy                 =      -0.08271567 Ry
     correction to one-el term =     179.83873733 Ry

     iteration # 17     ecut=    50.00 Ry     beta= 0.70
     Davidson diagonalization with overlap
     ethr =  1.75E-07,  avg # of iterations =  7.0

     negative rho (up, down):  1.327E-04 0.000E+00

     add environment contribution to local potential
     Polarization accuracy = 3.7E-12, # of iterations =  47

     total cpu time spent up to now is     6379.2 secs

     total energy              =   -3437.81844344 Ry
     estimated scf accuracy    <       0.00024857 Ry
     electrostatic embedding   =      -0.04829003 Ry
     cavitation energy         =       0.02176416 Ry
     PV energy                 =      -0.08280510 Ry
     correction to one-el term =     180.56495054 Ry

     iteration # 18     ecut=    50.00 Ry     beta= 0.70
     Davidson diagonalization with overlap
     ethr =  6.75E-08,  avg # of iterations =  8.0

     negative rho (up, down):  4.497E-04 0.000E+00

     add environment contribution to local potential
     Polarization accuracy = 5.6E-12, # of iterations =  46

     total cpu time spent up to now is     6683.0 secs

     total energy              =   -3437.81851363 Ry
     estimated scf accuracy    <       0.00005605 Ry
     electrostatic embedding   =      -0.04717631 Ry
     cavitation energy         =       0.02175268 Ry
     PV energy                 =      -0.08285212 Ry
     correction to one-el term =     181.09257969 Ry

     iteration # 19     ecut=    50.00 Ry     beta= 0.70
     Davidson diagonalization with overlap
     ethr =  1.52E-08,  avg # of iterations =  2.0

     negative rho (up, down):  7.034E-04 0.000E+00

     add environment contribution to local potential
     Polarization accuracy = 4.4E-12, # of iterations =  47

     total cpu time spent up to now is     6976.2 secs

     total energy              =   -3437.81852699 Ry
     estimated scf accuracy    <       0.00004980 Ry
     electrostatic embedding   =      -0.04688817 Ry
     cavitation energy         =       0.02175454 Ry
     PV energy                 =      -0.08283905 Ry
     correction to one-el term =     181.19336861 Ry

     iteration # 20     ecut=    50.00 Ry     beta= 0.70
     Davidson diagonalization with overlap
     ethr =  1.35E-08,  avg # of iterations =  2.0

     negative rho (up, down):  6.946E-04 0.000E+00

     add environment contribution to local potential
     Polarization accuracy = 4.6E-12, # of iterations =  47

     total cpu time spent up to now is     7280.5 secs

     total energy              =   -3437.81853401 Ry
     estimated scf accuracy    <       0.00003957 Ry
     electrostatic embedding   =      -0.04659508 Ry
     cavitation energy         =       0.02175719 Ry
     PV energy                 =      -0.08282915 Ry
     correction to one-el term =     181.26708532 Ry

     iteration # 21     ecut=    50.00 Ry     beta= 0.70
     Davidson diagonalization with overlap
     ethr =  1.08E-08,  avg # of iterations =  2.0

     negative rho (up, down):  5.915E-05 0.000E+00

     add environment contribution to local potential
     Polarization accuracy = 5.1E-12, # of iterations =  47

     total cpu time spent up to now is     7588.6 secs

     total energy              =   -3437.81853453 Ry
     estimated scf accuracy    <       0.00001702 Ry
     electrostatic embedding   =      -0.04636539 Ry
     cavitation energy         =       0.02175962 Ry
     PV energy                 =      -0.08281778 Ry
     correction to one-el term =     181.30642953 Ry

     iteration # 22     ecut=    50.00 Ry     beta= 0.70
     Davidson diagonalization with overlap
     ethr =  4.63E-09,  avg # of iterations =  2.0

     negative rho (up, down):  6.467E-05 0.000E+00

     add environment contribution to local potential
     Polarization accuracy = 5.2E-12, # of iterations =  47

     total cpu time spent up to now is     7892.7 secs

     total energy              =   -3437.81853538 Ry
     estimated scf accuracy    <       0.00000984 Ry
     electrostatic embedding   =      -0.04626976 Ry
     cavitation energy         =       0.02176213 Ry
     PV energy                 =      -0.08279689 Ry
     correction to one-el term =     181.27076312 Ry

     iteration # 23     ecut=    50.00 Ry     beta= 0.70
     Davidson diagonalization with overlap
     ethr =  2.67E-09,  avg # of iterations =  2.0

     negative rho (up, down):  4.900E-05 0.000E+00

     add environment contribution to local potential
     Polarization accuracy = 5.3E-12, # of iterations =  47

     total cpu time spent up to now is     8173.9 secs

     total energy              =   -3437.81853629 Ry
     estimated scf accuracy    <       0.00000272 Ry
     electrostatic embedding   =      -0.04617255 Ry
     cavitation energy         =       0.02176145 Ry
     PV energy                 =      -0.08278960 Ry
     correction to one-el term =     181.28670766 Ry

     iteration # 24     ecut=    50.00 Ry     beta= 0.70
     Davidson diagonalization with overlap
     ethr =  7.38E-10,  avg # of iterations =  2.0

     negative rho (up, down):  7.619E-05 0.000E+00

     add environment contribution to local potential
     Polarization accuracy = 5.8E-12, # of iterations =  46

     total cpu time spent up to now is     8435.2 secs

     total energy              =   -3437.81853705 Ry
     estimated scf accuracy    <       0.00000171 Ry
     electrostatic embedding   =      -0.04611524 Ry
     cavitation energy         =       0.02176053 Ry
     PV energy                 =      -0.08278605 Ry
     correction to one-el term =     181.28650325 Ry

     iteration # 25     ecut=    50.00 Ry     beta= 0.70
     Davidson diagonalization with overlap
     ethr =  4.64E-10,  avg # of iterations =  1.0

     negative rho (up, down):  5.757E-05 0.000E+00

     add environment contribution to local potential
     Polarization accuracy = 5.2E-12, # of iterations =  47

     total cpu time spent up to now is     8752.6 secs

     total energy              =   -3437.81853726 Ry
     estimated scf accuracy    <       0.00000046 Ry
     electrostatic embedding   =      -0.04611774 Ry
     cavitation energy         =       0.02175906 Ry
     PV energy                 =      -0.08278765 Ry
     correction to one-el term =     181.28952248 Ry

     iteration # 26     ecut=    50.00 Ry     beta= 0.70
     Davidson diagonalization with overlap
     ethr =  1.24E-10,  avg # of iterations =  2.0

     negative rho (up, down):  8.674E-05 0.000E+00

     add environment contribution to local potential
     Polarization accuracy = 6.5E-12, # of iterations =  46

     total cpu time spent up to now is     9070.8 secs

     total energy              =   -3437.81853753 Ry
     estimated scf accuracy    <       0.00000031 Ry
     electrostatic embedding   =      -0.04611269 Ry
     cavitation energy         =       0.02175892 Ry
     PV energy                 =      -0.08278638 Ry
     correction to one-el term =     181.28380143 Ry

     iteration # 27     ecut=    50.00 Ry     beta= 0.70
     Davidson diagonalization with overlap
     ethr =  8.42E-11,  avg # of iterations =  1.0

     negative rho (up, down):  1.150E-04 0.000E+00

     add environment contribution to local potential
     Polarization accuracy = 6.7E-12, # of iterations =  47

     total cpu time spent up to now is     9425.4 secs

     total energy              =   -3437.81853790 Ry
     estimated scf accuracy    <       0.00000013 Ry
     electrostatic embedding   =      -0.04611022 Ry
     cavitation energy         =       0.02175784 Ry
     PV energy                 =      -0.08278850 Ry
     correction to one-el term =     181.28842847 Ry

     iteration # 28     ecut=    50.00 Ry     beta= 0.70
     Davidson diagonalization with overlap
     ethr =  3.50E-11,  avg # of iterations =  2.0

     negative rho (up, down):  1.294E-04 0.000E+00

     add environment contribution to local potential
     Polarization accuracy = 8.8E-12, # of iterations =  46

     total cpu time spent up to now is     9742.0 secs

     total energy              =   -3437.81853823 Ry
     estimated scf accuracy    <       0.00000009 Ry
     electrostatic embedding   =      -0.04610064 Ry
     cavitation energy         =       0.02175726 Ry
     PV energy                 =      -0.08278970 Ry
     correction to one-el term =     181.29355726 Ry

     iteration # 29     ecut=    50.00 Ry     beta= 0.70
     Davidson diagonalization with overlap
     ethr =  2.36E-11,  avg # of iterations =  1.0

     negative rho (up, down):  1.417E-04 0.000E+00

     add environment contribution to local potential
     Polarization accuracy = 5.1E-12, # of iterations =  47

     total cpu time spent up to now is    10072.1 secs

     total energy              =   -3437.81853854 Ry
     estimated scf accuracy    <       0.00000009 Ry
     electrostatic embedding   =      -0.04609529 Ry
     cavitation energy         =       0.02175694 Ry
     PV energy                 =      -0.08279038 Ry
     correction to one-el term =     181.29636521 Ry

     iteration # 30     ecut=    50.00 Ry     beta= 0.70
     Davidson diagonalization with overlap
     ethr =  2.36E-11,  avg # of iterations =  1.0

     negative rho (up, down):  1.470E-04 0.000E+00

     add environment contribution to local potential
     Polarization accuracy = 5.1E-12, # of iterations =  47

     total cpu time spent up to now is    10333.2 secs

     total energy              =   -3437.81853887 Ry
     estimated scf accuracy    <       0.00000007 Ry
     electrostatic embedding   =      -0.04608690 Ry
     cavitation energy         =       0.02175678 Ry
     PV energy                 =      -0.08279071 Ry
     correction to one-el term =     181.29979249 Ry

     iteration # 31     ecut=    50.00 Ry     beta= 0.70
     Davidson diagonalization with overlap
     ethr =  1.77E-11,  avg # of iterations =  1.0

     negative rho (up, down):  1.482E-04 0.000E+00

     add environment contribution to local potential
     Polarization accuracy = 5.1E-12, # of iterations =  47

     total cpu time spent up to now is    10694.7 secs

     total energy              =   -3437.81853927 Ry
     estimated scf accuracy    <       0.00000006 Ry
     electrostatic embedding   =      -0.04608153 Ry
     cavitation energy         =       0.02175668 Ry
     PV energy                 =      -0.08279088 Ry
     correction to one-el term =     181.30192068 Ry

     iteration # 32     ecut=    50.00 Ry     beta= 0.70
     Davidson diagonalization with overlap
     ethr =  1.60E-11,  avg # of iterations =  2.0

     negative rho (up, down):  1.481E-04 0.000E+00

     add environment contribution to local potential
     Polarization accuracy = 5.1E-12, # of iterations =  47

     total cpu time spent up to now is    11027.2 secs

     total energy              =   -3437.81854009 Ry
     estimated scf accuracy    <       0.00000005 Ry
     electrostatic embedding   =      -0.04607015 Ry
     cavitation energy         =       0.02175661 Ry
     PV energy                 =      -0.08279058 Ry
     correction to one-el term =     181.30474493 Ry

     iteration # 33     ecut=    50.00 Ry     beta= 0.70
     Davidson diagonalization with overlap
     ethr =  1.48E-11,  avg # of iterations =  1.0

     negative rho (up, down):  1.420E-04 0.000E+00

     add environment contribution to local potential
     Polarization accuracy = 9.0E-12, # of iterations =  46

     total cpu time spent up to now is    11360.3 secs

     total energy              =   -3437.81854064 Ry
     estimated scf accuracy    <       0.00000005 Ry
     electrostatic embedding   =      -0.04606797 Ry
     cavitation energy         =       0.02175660 Ry
     PV energy                 =      -0.08279050 Ry
     correction to one-el term =     181.30528406 Ry

     iteration # 34     ecut=    50.00 Ry     beta= 0.70
     Davidson diagonalization with overlap
     ethr =  1.41E-11,  avg # of iterations =  2.0

     negative rho (up, down):  1.281E-04 0.000E+00

     add environment contribution to local potential
     Polarization accuracy = 5.1E-12, # of iterations =  47

     total cpu time spent up to now is    11552.7 secs

     total energy              =   -3437.81854184 Ry
     estimated scf accuracy    <       0.00000005 Ry
     electrostatic embedding   =      -0.04606289 Ry
     cavitation energy         =       0.02175666 Ry
     PV energy                 =      -0.08278998 Ry
     correction to one-el term =     181.30574167 Ry

     iteration # 35     ecut=    50.00 Ry     beta= 0.70
     Davidson diagonalization with overlap
     ethr =  1.23E-11,  avg # of iterations =  5.0

     negative rho (up, down):  1.438E-04 0.000E+00

     add environment contribution to local potential
     Polarization accuracy = 5.0E-12, # of iterations =  47

     total cpu time spent up to now is    11767.9 secs

     total energy              =   -3437.81854517 Ry
     estimated scf accuracy    <       0.00000005 Ry
     electrostatic embedding   =      -0.04606720 Ry
     cavitation energy         =       0.02175684 Ry
     PV energy                 =      -0.08278913 Ry
     correction to one-el term =     181.30195869 Ry

     iteration # 36     ecut=    50.00 Ry     beta= 0.70
     Davidson diagonalization with overlap
     ethr =  1.23E-11,  avg # of iterations =  2.0

     negative rho (up, down):  1.371E-04 0.000E+00

     add environment contribution to local potential
     Polarization accuracy = 4.4E-12, # of iterations =  47

     total cpu time spent up to now is    12076.6 secs

     total energy              =   -3437.81854650 Ry
     estimated scf accuracy    <       0.00000005 Ry
     electrostatic embedding   =      -0.04606053 Ry
     cavitation energy         =       0.02175660 Ry
     PV energy                 =      -0.08278979 Ry
     correction to one-el term =     181.30556485 Ry

     iteration # 37     ecut=    50.00 Ry     beta= 0.70
     Davidson diagonalization with overlap
     ethr =  1.23E-11,  avg # of iterations =  5.0

     negative rho (up, down):  1.293E-04 0.000E+00

     add environment contribution to local potential
     Polarization accuracy = 3.9E-12, # of iterations =  47

     total cpu time spent up to now is    12382.4 secs

     total energy              =   -3437.81855420 Ry
     estimated scf accuracy    <       0.00000003 Ry
     electrostatic embedding   =      -0.04606316 Ry
     cavitation energy         =       0.02175669 Ry
     PV energy                 =      -0.08278937 Ry
     correction to one-el term =     181.30324974 Ry

     iteration # 38     ecut=    50.00 Ry     beta= 0.70
     Davidson diagonalization with overlap
     ethr =  7.95E-12,  avg # of iterations =  2.0

     negative rho (up, down):  1.376E-04 0.000E+00

     add environment contribution to local potential
     Polarization accuracy = 2.7E-12, # of iterations =  47

     total cpu time spent up to now is    12701.2 secs

     total energy              =   -3437.81855596 Ry
     estimated scf accuracy    <       0.00000001 Ry
     electrostatic embedding   =      -0.04607687 Ry
     cavitation energy         =       0.02175690 Ry
     PV energy                 =      -0.08278946 Ry
     correction to one-el term =     181.29937328 Ry

     iteration # 39     ecut=    50.00 Ry     beta= 0.70
     Davidson diagonalization with overlap
     ethr =  3.98E-12,  avg # of iterations =  5.0

     negative rho (up, down):  1.396E-04 0.000E+00

     add environment contribution to local potential
     Polarization accuracy = 9.0E-12, # of iterations =  46

     total cpu time spent up to now is    13032.8 secs

     total energy              =   -3437.81855895 Ry
     estimated scf accuracy    <          9.4E-09 Ry
     electrostatic embedding   =      -0.04607961 Ry
     cavitation energy         =       0.02175681 Ry
     PV energy                 =      -0.08279013 Ry
     correction to one-el term =     181.30019677 Ry

     iteration # 40     ecut=    50.00 Ry     beta= 0.70
     Davidson diagonalization with overlap
     ethr =  2.55E-12,  avg # of iterations =  1.0

     negative rho (up, down):  1.416E-04 0.000E+00

     add environment contribution to local potential
     Polarization accuracy = 8.6E-12, # of iterations =  46

     total cpu time spent up to now is    13349.6 secs

     total energy              =   -3437.81855979 Ry
     estimated scf accuracy    <          3.8E-09 Ry
     electrostatic embedding   =      -0.04607753 Ry
     cavitation energy         =       0.02175677 Ry
     PV energy                 =      -0.08279021 Ry
     correction to one-el term =     181.30119364 Ry

     iteration # 41     ecut=    50.00 Ry     beta= 0.70
     Davidson diagonalization with overlap
     ethr =  1.03E-12,  avg # of iterations =  2.0

     negative rho (up, down):  1.428E-04 0.000E+00

     add environment contribution to local potential
     Polarization accuracy = 2.5E-12, # of iterations =  47

     total cpu time spent up to now is    13672.3 secs

     total energy              =   -3437.81856031 Ry
     estimated scf accuracy    <          1.9E-09 Ry
     electrostatic embedding   =      -0.04607881 Ry
     cavitation energy         =       0.02175675 Ry
     PV energy                 =      -0.08279043 Ry
     correction to one-el term =     181.30150238 Ry

     iteration # 42     ecut=    50.00 Ry     beta= 0.70
     Davidson diagonalization with overlap
     ethr =  5.08E-13,  avg # of iterations =  1.0

     negative rho (up, down):  1.393E-04 0.000E+00

     the potential shift due to the Gaussian-smeared nuclei is    -1.3208 ev

     total cpu time spent up to now is    13940.9 secs

     End of self-consistent calculation

          k = 0.2500 0.2573 0.0000 ( 35510 PWs)   bands (ev):

   -77.2126 -77.2002 -76.6767 -76.6710 -76.6649 -76.6099 -76.5751 -76.5637
   -76.5632 -76.5518 -76.5517 -76.4683 -47.6816 -47.6692 -47.0695 -47.0572
   -47.0421 -47.0301 -46.9673 -46.8932 -46.8925 -46.8807 -46.8606 -46.8485
   -46.8216 -46.8096 -46.7993 -46.7121 -46.6044 -46.5706 -46.5587 -46.5547
   -46.5432 -46.5281 -46.5132 -46.5016 -46.4920 -46.4775 -46.4641 -46.4523
   -46.4216 -46.4119 -46.4114 -46.4001 -46.3758 -46.3572 -46.3452 -46.3047
   -24.8339 -24.8173 -23.4236 -23.3837 -23.1944 -23.1779 -22.9417 -22.7379
   -22.6532 -22.5310 -22.4742 -22.4523 -22.3247 -22.2404 -22.1572 -22.0941
   -22.0019 -21.9881 -21.9428 -21.9206 -21.8845 -21.8193 -21.7892 -21.7838
   -21.6794 -21.5734 -21.0009 -20.9646 -12.5015 -12.4850 -11.6025 -11.3600
   -11.0993 -11.0816 -11.0333 -10.9932 -10.9537 -10.8411 -10.5363 -10.4773
   -10.4131 -10.2777 -10.2421 -10.1509 -10.0952 -10.0634 -10.0449  -9.9821
    -9.9667  -9.9401  -9.8621  -9.8588  -9.7912  -9.7767  -9.7335  -9.5820
    -9.4435  -9.3399  -9.2779  -9.1241  -9.0094  -8.9151  -8.8849  -8.7864
    -8.7526  -8.6256  -8.5190  -8.4622  -8.4548  -8.3214  -8.2678  -8.1190
    -8.1053  -8.0481  -8.0211  -7.9328  -7.8579  -7.8062  -7.7344  -7.6188
    -7.6098  -7.5613  -7.5543  -7.4675  -7.4508  -7.4203  -7.3331  -7.3144
    -7.2231  -7.1759  -7.1181  -7.0569  -7.0509  -6.9324  -6.9084  -6.7894
    -6.6812  -6.5883  -6.5751  -6.4758  -6.4534  -6.3077  -6.2965  -6.1951
    -6.1223  -6.0777  -6.0123  -5.9487  -5.8937  -5.7816  -5.7740  -5.4829
    -4.3502  -4.2714  -4.2350  -4.2111  -4.1617  -4.1129  -4.0182  -4.0127
    -3.9723  -3.9363  -3.8815  -3.8364  -3.8236  -3.7572  -3.7515  -3.7146
    -3.6528  -3.6211  -3.6130  -3.5187  -3.4579  -3.4236  -3.3257  -3.2806
    -3.1188  -3.0825  -2.9717  -2.7657  -2.6317  -2.4967  -2.4891  -2.3918
    -2.3752  -2.3552  -2.1704  -1.9894  -1.2185  -1.1913  -1.1316  -1.0871
    -0.8424  -0.7934  -0.7388  -0.2043  -0.1229   0.1252   0.2119   0.3324
     0.3574   0.4539   0.5509   0.5944   0.8335   0.8439   0.8907   1.1578
     1.2048   1.3249   1.3318   1.4116   1.5312

          k =-0.2500 0.2573 0.0000 ( 35510 PWs)   bands (ev):

   -77.2126 -77.2002 -76.6767 -76.6710 -76.6649 -76.6099 -76.5751 -76.5637
   -76.5632 -76.5518 -76.5517 -76.4683 -47.6816 -47.6692 -47.0694 -47.0571
   -47.0421 -47.0301 -46.9673 -46.8934 -46.8925 -46.8810 -46.8603 -46.8483
   -46.8216 -46.8096 -46.7993 -46.7121 -46.6043 -46.5705 -46.5585 -46.5549
   -46.5433 -46.5281 -46.5132 -46.5017 -46.4919 -46.4775 -46.4641 -46.4523
   -46.4216 -46.4120 -46.4115 -46.4001 -46.3757 -46.3572 -46.3452 -46.3047
   -24.8340 -24.8173 -23.4227 -23.3828 -23.1949 -23.1784 -22.9427 -22.7394
   -22.6536 -22.5306 -22.4715 -22.4498 -22.3237 -22.2432 -22.1553 -22.0949
   -22.0033 -21.9973 -21.9429 -21.9250 -21.8751 -21.8131 -21.7905 -21.7849
   -21.6803 -21.5729 -21.0010 -20.9647 -12.4975 -12.4810 -11.6089 -11.3741
   -11.1444 -11.1197 -10.9888 -10.9401 -10.9316 -10.8420 -10.5562 -10.4917
   -10.4285 -10.2824 -10.2565 -10.1392 -10.0673 -10.0477 -10.0440 -10.0084
    -9.9541  -9.8992  -9.8530  -9.8439  -9.8290  -9.7969  -9.6796  -9.6275
    -9.4207  -9.3956  -9.2759  -9.1028  -9.0373  -8.9422  -8.8931  -8.7481
    -8.7303  -8.6147  -8.5675  -8.4334  -8.4076  -8.2880  -8.2740  -8.1636
    -8.1003  -8.0573  -8.0463  -7.9510  -7.8555  -7.8106  -7.7265  -7.6362
    -7.5996  -7.5623  -7.5462  -7.4979  -7.4444  -7.3564  -7.3503  -7.2827
    -7.2037  -7.1498  -7.1174  -7.0958  -7.0275  -6.9494  -6.9233  -6.8052
    -6.7090  -6.6317  -6.5364  -6.4628  -6.4243  -6.3231  -6.3208  -6.2115
    -6.1222  -6.0617  -6.0041  -5.9546  -5.8743  -5.8075  -5.7536  -5.4889
    -4.3566  -4.2826  -4.2439  -4.1788  -4.1718  -4.1029  -4.0075  -3.9899
    -3.9687  -3.9444  -3.8940  -3.8336  -3.8318  -3.7653  -3.7617  -3.7114
    -3.6441  -3.6357  -3.5949  -3.5223  -3.4652  -3.4271  -3.3134  -3.2797
    -3.1151  -3.0983  -2.9767  -2.7617  -2.6412  -2.4972  -2.4895  -2.3907
    -2.3749  -2.3485  -2.1741  -1.9803  -1.2214  -1.2022  -1.1254  -1.0762
    -0.8424  -0.7941  -0.7401  -0.2082  -0.1214   0.1150   0.2145   0.3349
     0.3583   0.4526   0.5387   0.6140   0.8391   0.8464   0.8848   1.1562
     1.2247   1.3193   1.3339   1.4062   1.5217

     the Fermi energy is    -3.2223 ev

!    total energy              =   -3437.81856042 Ry
     estimated scf accuracy    <          4.7E-10 Ry
     smearing contrib. (-TS)   =       0.06870354 Ry
     internal energy E=F+TS    =   -3437.88726396 Ry

     The total energy is F=E-TS. E is the sum of the following terms:
     one-electron contribution =  -25097.58992213 Ry
     hartree contribution      =   12541.34769272 Ry
     xc contribution           =    -449.74145171 Ry
     ewald contribution        =    9653.37269649 Ry
     one-center paw contrib.   =    -266.47110331 Ry
     electrostatic embedding   =      -0.04607894 Ry
     cavitation energy         =       0.02175674 Ry
     PV energy                 =      -0.08279055 Ry
     correction to one-el term =     181.30193672 Ry

     WARNING: you are using the parabolic pbc correction;
              the potential shift above must be added to 
              band and Fermi energies.

     convergence has been achieved in  42 iterations

     negative rho (up, down):  1.393E-04 0.000E+00

     Forces acting on atoms (cartesian axes, Ry/au):

     atom    1 type  1   force =     0.02748664    0.09764676    0.00432564
     atom    2 type  1   force =    -0.00187992   -0.00205378   -0.01145749
     atom    3 type  1   force =    -0.00080411    0.03108088    0.03625159
     atom    4 type  1   force =     0.00049864   -0.05101617    0.03892939
     atom    5 type  2   force =     0.00805823   -0.00119889   -0.00579822
     atom    6 type  2   force =    -0.00562838   -0.00183872   -0.00455640
     atom    7 type  1   force =     0.00264879    0.03063362    0.00392393
     atom    8 type  1   force =    -0.00169366    0.01638416    0.00378899
     atom    9 type  2   force =    -0.00414345   -0.00042086   -0.01113874
     atom   10 type  2   force =    -0.00175593    0.00236575    0.00128802
     atom   11 type  1   force =     0.00139914   -0.02745991    0.00094825
     atom   12 type  1   force =     0.00066395   -0.01379727    0.00032598
     atom   13 type  1   force =    -0.00096139   -0.00108885    0.00047109
     atom   14 type  1   force =     0.00055769   -0.00058661    0.00453890
     atom   15 type  1   force =    -0.00037280    0.00037414    0.00312878
     atom   16 type  1   force =     0.00223261    0.00003222    0.00425249
     atom   17 type  2   force =     0.01012500    0.00143226    0.00000000
     atom   18 type  2   force =    -0.00949335    0.00181470    0.00000000
     atom   19 type  1   force =    -0.00365951   -0.01453049    0.00000000
     atom   20 type  1   force =     0.00245302   -0.03472506    0.00000000
     atom   21 type  2   force =    -0.00476304   -0.00148995    0.00000000
     atom   22 type  2   force =     0.00599154   -0.00134252    0.00000000
     atom   23 type  1   force =    -0.00412031    0.01612992    0.00000000
     atom   24 type  1   force =     0.00293753    0.03628289    0.00000000
     atom   25 type  1   force =    -0.00037280    0.00037414   -0.00312878
     atom   26 type  1   force =     0.00223261    0.00003222   -0.00425249
     atom   27 type  1   force =    -0.00096139   -0.00108885   -0.00047109
     atom   28 type  1   force =     0.00055769   -0.00058661   -0.00453890
     atom   29 type  2   force =     0.00805823   -0.00119889    0.00579822
     atom   30 type  2   force =    -0.00562838   -0.00183872    0.00455640
     atom   31 type  1   force =     0.00264879    0.03063362   -0.00392393
     atom   32 type  1   force =    -0.00169366    0.01638416   -0.00378899
     atom   33 type  2   force =    -0.00414345   -0.00042086    0.01113874
     atom   34 type  2   force =    -0.00175593    0.00236575   -0.00128802
     atom   35 type  1   force =     0.00139914   -0.02745991   -0.00094825
     atom   36 type  1   force =     0.00066395   -0.01379727   -0.00032598
     atom   37 type  1   force =    -0.00080411    0.03108088   -0.03625159
     atom   38 type  1   force =     0.00049864   -0.05101617   -0.03892939
     atom   39 type  1   force =     0.02748664    0.09764676   -0.00432564
     atom   40 type  1   force =    -0.00187992   -0.00205378    0.01145749
     atom   41 type  3   force =    -0.00562960    0.00100863    0.00007884
     atom   42 type  3   force =    -0.00562960    0.00100863   -0.00007884
     atom   43 type  3   force =    -0.02008134   -0.09519167   -0.00790304
     atom   44 type  3   force =    -0.02008134   -0.09519167    0.00790304
     atom   45 type  3   force =    -0.00054207    0.04792343   -0.03917617
     atom   46 type  3   force =    -0.00054207    0.04792343    0.03917617
     atom   47 type  3   force =     0.00021151   -0.03458272   -0.03496388
     atom   48 type  3   force =     0.00021151   -0.03458272    0.03496388
     The non-local contrib.  to forces
     atom    1 type  1   force =     1.19393905   -1.47145639    0.25032809
     atom    2 type  1   force =    -0.04038147    0.02013245    1.06133850
     atom    3 type  1   force =     0.01827796   -1.36300503   -0.46435560
     atom    4 type  1   force =    -0.01184007    1.41397738   -0.24437074
     atom    5 type  2   force =    -0.00632344   -0.00136080    0.05329610
     atom    6 type  2   force =     0.00180814   -0.00200340    0.05175177
     atom    7 type  1   force =    -0.02763533    0.00684886   -0.13391654
     atom    8 type  1   force =    -0.07073370    0.02859403   -0.04446197
     atom    9 type  2   force =    -0.00365392    0.01085304    0.00568447
     atom   10 type  2   force =    -0.00434463    0.00171851   -0.00772518
     atom   11 type  1   force =    -0.02566839   -0.01302871    0.02293951
     atom   12 type  1   force =    -0.07889358   -0.03084449    0.07408403
     atom   13 type  1   force =    -0.01193202    0.05055880   -0.05394083
     atom   14 type  1   force =     0.00050337    0.01905249   -0.04384933
     atom   15 type  1   force =    -0.00193670   -0.04261597   -0.22821634
     atom   16 type  1   force =    -0.00916003   -0.04350666    0.21951795
     atom   17 type  2   force =     0.00078976   -0.00102864    0.00000000
     atom   18 type  2   force =    -0.00627241    0.00180565    0.00000000
     atom   19 type  1   force =     0.02529932    0.02131481    0.00000000
     atom   20 type  1   force =    -0.02613443   -0.02565040    0.00000000
     atom   21 type  2   force =     0.00089306    0.00064562    0.00000000
     atom   22 type  2   force =    -0.01901513    0.00104652    0.00000000
     atom   23 type  1   force =     0.03139022   -0.02795530    0.00000000
     atom   24 type  1   force =    -0.03127327    0.01815281    0.00000000
     atom   25 type  1   force =    -0.00193670   -0.04261597    0.22821634
     atom   26 type  1   force =    -0.00916003   -0.04350666   -0.21951795
     atom   27 type  1   force =    -0.01193202    0.05055880    0.05394083
     atom   28 type  1   force =     0.00050337    0.01905249    0.04384933
     atom   29 type  2   force =    -0.00632344   -0.00136080   -0.05329610
     atom   30 type  2   force =     0.00180814   -0.00200340   -0.05175177
     atom   31 type  1   force =    -0.02763533    0.00684886    0.13391654
     atom   32 type  1   force =    -0.07073370    0.02859403    0.04446197
     atom   33 type  2   force =    -0.00365392    0.01085304   -0.00568447
     atom   34 type  2   force =    -0.00434463    0.00171851    0.00772518
     atom   35 type  1   force =    -0.02566839   -0.01302871   -0.02293951
     atom   36 type  1   force =    -0.07889358   -0.03084449   -0.07408403
     atom   37 type  1   force =     0.01827796   -1.36300503    0.46435560
     atom   38 type  1   force =    -0.01184007    1.41397738    0.24437074
     atom   39 type  1   force =     1.19393905   -1.47145639   -0.25032809
     atom   40 type  1   force =    -0.04038147    0.02013245   -1.06133850
     atom   41 type  3   force =    -0.09312569   -0.00887155    0.01132270
     atom   42 type  3   force =    -0.09312569   -0.00887155   -0.01132270
     atom   43 type  3   force =     0.02720638    0.12214571    0.00935696
     atom   44 type  3   force =     0.02720638    0.12214571   -0.00935696
     atom   45 type  3   force =     0.00081308   -0.09175197    0.07813719
     atom   46 type  3   force =     0.00081308   -0.09175197   -0.07813719
     atom   47 type  3   force =    -0.00093588    0.08178992    0.08922702
     atom   48 type  3   force =    -0.00093588    0.08178992   -0.08922702
     The ionic contribution  to forces
     atom    1 type  1   force =    -3.30549912    3.63719966  -91.44665906
     atom    2 type  1   force =     0.92548437    0.29162101  -98.06224463
     atom    3 type  1   force =    -0.45132615    1.05373984  -89.96405417
     atom    4 type  1   force =     0.39486221   -3.40300303  -90.45672947
     atom    5 type  2   force =     0.25392719   -2.10180644 -166.46702817
     atom    6 type  2   force =    -0.30786753   -1.92829038 -168.23166005
     atom    7 type  1   force =     0.94388180    0.07754480  -58.91638040
     atom    8 type  1   force =    -0.19214631   -0.22781166  -62.37109947
     atom    9 type  2   force =    -2.21436070    2.10158078 -164.87372153
     atom   10 type  2   force =     1.90040791    2.39827971 -171.02236345
     atom   11 type  1   force =     0.64809998    0.47060443  -64.31756991
     atom   12 type  1   force =     0.09789001    0.75196294  -66.44445296
     atom   13 type  1   force =    -0.09169277   -0.59218596  -37.15488507
     atom   14 type  1   force =     0.16108469   -0.49569959  -37.30514000
     atom   15 type  1   force =    -0.18922580    0.41473798  -23.97605343
     atom   16 type  1   force =     0.29145627    0.33297233  -27.49025179
     atom   17 type  2   force =    -0.00498197    0.55991102   -0.00046206
     atom   18 type  2   force =    -0.10357598    0.65277905   -0.00045461
     atom   19 type  1   force =    -0.06135137    1.10589252   -0.00008468
     atom   20 type  1   force =     0.04143934    0.56152997   -0.00007955
     atom   21 type  2   force =     1.11088927   -0.15984328   -0.00027187
     atom   22 type  2   force =    -1.70429917   -0.24650912   -0.00025714
     atom   23 type  1   force =    -0.13162728   -1.09273826   -0.00008287
     atom   24 type  1   force =     0.09315180   -0.55311793   -0.00007906
     atom   25 type  1   force =    -0.18921908    0.41473873   23.97583654
     atom   26 type  1   force =     0.29146581    0.33297307   27.49011677
     atom   27 type  1   force =    -0.09168992   -0.59219322   37.15517902
     atom   28 type  1   force =     0.16108393   -0.49570750   37.30544034
     atom   29 type  2   force =     0.25393921   -2.10179502  166.46732605
     atom   30 type  2   force =    -0.30787878   -1.92827724  168.23195433
     atom   31 type  1   force =     0.94388178    0.07751121   58.91644204
     atom   32 type  1   force =    -0.19214507   -0.22784033   62.37116582
     atom   33 type  2   force =    -2.21437479    2.10158405  164.87384465
     atom   34 type  2   force =     1.90041681    2.39828559  171.02251894
     atom   35 type  1   force =     0.64810352    0.47063543   64.31763220
     atom   36 type  1   force =     0.09788722    0.75198812   66.44451886
     atom   37 type  1   force =    -0.45133389    1.05394721   89.96398700
     atom   38 type  1   force =     0.39486673   -3.40327415   90.45674669
     atom   39 type  1   force =    -3.30551854    3.63722891   91.44688050
     atom   40 type  1   force =     0.92549091    0.29162639   98.06232428
     atom   41 type  3   force =     2.43491941    0.39019156  -15.46205596
     atom   42 type  3   force =     2.43493801    0.39019335   15.46203240
     atom   43 type  3   force =    -0.96430343   -3.29834618  -15.37492710
     atom   44 type  3   force =    -0.96430661   -3.29835003   15.37488463
     atom   45 type  3   force =     0.09592637    2.19493514  -17.33599979
     atom   46 type  3   force =     0.09592362    2.19519451   17.33607250
     atom   47 type  3   force =    -0.05134858   -2.48216918  -17.51301948
     atom   48 type  3   force =    -0.05134532   -2.48243081   17.51316418
     The local contribution  to forces
     atom    1 type  1   force =     2.11053499   -2.03314227   91.19337794
     atom    2 type  1   force =    -0.82986870   -0.24760780   96.92920063
     atom    3 type  1   force =     0.42148738    0.34269484   90.53950040
     atom    4 type  1   force =    -0.37183006    1.89963748   90.73380186
     atom    5 type  2   force =    -0.20409273    2.08559358  166.44015669
     atom    6 type  2   force =     0.26417270    1.90810731  168.18894106
     atom    7 type  1   force =    -0.90588055   -0.04351951   59.06046508
     atom    8 type  1   force =     0.25131812    0.23060555   62.41493240
     atom    9 type  2   force =     2.19486976   -2.10411680  164.85537616
     atom   10 type  2   force =    -1.87322094   -2.36367309  170.96719341
     atom   11 type  1   force =    -0.60388672   -0.49247027   64.29273546
     atom   12 type  1   force =    -0.03788122   -0.74610933   66.34875603
     atom   13 type  1   force =     0.10086395    0.53976204   37.21507306
     atom   14 type  1   force =    -0.15944611    0.47317422   37.35120407
     atom   15 type  1   force =     0.18955812   -0.37147476   24.20420116
     atom   16 type  1   force =    -0.27883635   -0.28849419   27.27370403
     atom   17 type  2   force =     0.01281466   -0.55864556   -0.00578701
     atom   18 type  2   force =     0.10174863   -0.65453629   -0.00582341
     atom   19 type  1   force =     0.03366399   -1.14117298   -0.00241312
     atom   20 type  1   force =    -0.01412045   -0.57085528   -0.00243823
     atom   21 type  2   force =    -1.11351134    0.15913613   -0.00596634
     atom   22 type  2   force =     1.72639205    0.24565488   -0.00601022
     atom   23 type  1   force =     0.09762736    1.13580691   -0.00241876
     atom   24 type  1   force =    -0.06044095    0.57103926   -0.00244126
     atom   25 type  1   force =     0.18957609   -0.37149020  -24.20594337
     atom   26 type  1   force =    -0.27882251   -0.28850596  -27.27544597
     atom   27 type  1   force =     0.10086313    0.53976100  -37.21683940
     atom   28 type  1   force =    -0.15944453    0.47317264  -37.35297041
     atom   29 type  2   force =    -0.20407670    2.08560822 -166.44617291
     atom   30 type  2   force =     0.26415623    1.90812579 -168.19493633
     atom   31 type  1   force =    -0.90585590   -0.04350636  -59.06286865
     atom   32 type  1   force =     0.25128514    0.23060907  -62.41736089
     atom   33 type  2   force =     2.19490951   -2.10417031 -164.86124710
     atom   34 type  2   force =    -1.87327861   -2.36372521 -170.97288699
     atom   35 type  1   force =    -0.60384997   -0.49249467  -64.29515881
     atom   36 type  1   force =    -0.03791947   -0.74611883  -66.35118670
     atom   37 type  1   force =     0.42149626    0.34265569  -90.54319095
     atom   38 type  1   force =    -0.37183534    1.89976684  -90.73756918
     atom   39 type  1   force =     2.11054512   -2.03315898  -91.19507136
     atom   40 type  1   force =    -0.82993413   -0.24765278  -96.93065413
     atom   41 type  3   force =    -2.34304344   -0.37297245   15.45256271
     atom   42 type  3   force =    -2.34304344   -0.37297245  -15.45256271
     atom   43 type  3   force =     0.91322277    3.09685433   15.36682106
     atom   44 type  3   force =     0.91322277    3.09685433  -15.36682106
     atom   45 type  3   force =    -0.09480671   -2.05919352   17.23042004
     atom   46 type  3   force =    -0.09480671   -2.05919352  -17.23042004
     atom   47 type  3   force =     0.04953354    2.37396837   17.42209983
     atom   48 type  3   force =     0.04953354    2.37396837  -17.42209983
     The core correction contribution to forces
     atom    1 type  1   force =    -0.01164389    0.01296271   -0.00294591
     atom    2 type  1   force =     0.00061930   -0.00002964   -0.00913992
     atom    3 type  1   force =    -0.00017934    0.01345049    0.00349106
     atom    4 type  1   force =     0.00011564   -0.01347009    0.00148945
     atom    5 type  2   force =     0.00000000    0.00000000    0.00000000
     atom    6 type  2   force =     0.00000000    0.00000000    0.00000000
     atom    7 type  1   force =    -0.00004405   -0.00094175    0.00131072
     atom    8 type  1   force =     0.00095588   -0.00081320    0.00048932
     atom    9 type  2   force =     0.00000000    0.00000000    0.00000000
     atom   10 type  2   force =     0.00000000    0.00000000    0.00000000
     atom   11 type  1   force =    -0.00003365    0.00099727   -0.00014595
     atom   12 type  1   force =     0.00101264    0.00080942   -0.00063930
     atom   13 type  1   force =     0.00008666   -0.00055112    0.00058551
     atom   14 type  1   force =     0.00001994   -0.00015383    0.00046157
     atom   15 type  1   force =     0.00005685    0.00042415    0.00240584
     atom   16 type  1   force =     0.00008336    0.00048744   -0.00296885
     atom   17 type  2   force =     0.00000000    0.00000000    0.00000000
     atom   18 type  2   force =     0.00000000    0.00000000    0.00000000
     atom   19 type  1   force =    -0.00021317    0.00002685   -0.00000195
     atom   20 type  1   force =     0.00022150    0.00095663   -0.00000207
     atom   21 type  2   force =     0.00000000    0.00000000    0.00000000
     atom   22 type  2   force =     0.00000000    0.00000000    0.00000000
     atom   23 type  1   force =    -0.00025618    0.00003875   -0.00000186
     atom   24 type  1   force =     0.00026021   -0.00086685   -0.00000199
     atom   25 type  1   force =     0.00005683    0.00042423   -0.00240840
     atom   26 type  1   force =     0.00008345    0.00048755    0.00296672
     atom   27 type  1   force =     0.00008664   -0.00055125   -0.00058763
     atom   28 type  1   force =     0.00001996   -0.00015396   -0.00046380
     atom   29 type  2   force =     0.00000000    0.00000000    0.00000000
     atom   30 type  2   force =     0.00000000    0.00000000    0.00000000
     atom   31 type  1   force =    -0.00004401   -0.00094174   -0.00131254
     atom   32 type  1   force =     0.00095578   -0.00081310   -0.00049115
     atom   33 type  2   force =     0.00000000    0.00000000    0.00000000
     atom   34 type  2   force =     0.00000000    0.00000000    0.00000000
     atom   35 type  1   force =    -0.00003349    0.00099720    0.00014402
     atom   36 type  1   force =     0.00101249    0.00080931    0.00063738
     atom   37 type  1   force =    -0.00017930    0.01345236   -0.00349580
     atom   38 type  1   force =     0.00011558   -0.01347222   -0.00149365
     atom   39 type  1   force =    -0.01164446    0.01296320    0.00294491
     atom   40 type  1   force =     0.00061916   -0.00002982    0.00913773
     atom   41 type  3   force =     0.00000000    0.00000000    0.00000000
     atom   42 type  3   force =     0.00000000    0.00000000    0.00000000
     atom   43 type  3   force =     0.00000000    0.00000000    0.00000000
     atom   44 type  3   force =     0.00000000    0.00000000    0.00000000
     atom   45 type  3   force =     0.00000000    0.00000000    0.00000000
     atom   46 type  3   force =     0.00000000    0.00000000    0.00000000
     atom   47 type  3   force =     0.00000000    0.00000000    0.00000000
     atom   48 type  3   force =     0.00000000    0.00000000    0.00000000
     The Hubbard contrib.    to forces
     atom    1 type  1   force =     0.00000000    0.00000000    0.00000000
     atom    2 type  1   force =     0.00000000    0.00000000    0.00000000
     atom    3 type  1   force =     0.00000000    0.00000000    0.00000000
     atom    4 type  1   force =     0.00000000    0.00000000    0.00000000
     atom    5 type  2   force =     0.00000000    0.00000000    0.00000000
     atom    6 type  2   force =     0.00000000    0.00000000    0.00000000
     atom    7 type  1   force =     0.00000000    0.00000000    0.00000000
     atom    8 type  1   force =     0.00000000    0.00000000    0.00000000
     atom    9 type  2   force =     0.00000000    0.00000000    0.00000000
     atom   10 type  2   force =     0.00000000    0.00000000    0.00000000
     atom   11 type  1   force =     0.00000000    0.00000000    0.00000000
     atom   12 type  1   force =     0.00000000    0.00000000    0.00000000
     atom   13 type  1   force =     0.00000000    0.00000000    0.00000000
     atom   14 type  1   force =     0.00000000    0.00000000    0.00000000
     atom   15 type  1   force =     0.00000000    0.00000000    0.00000000
     atom   16 type  1   force =     0.00000000    0.00000000    0.00000000
     atom   17 type  2   force =     0.00000000    0.00000000    0.00000000
     atom   18 type  2   force =     0.00000000    0.00000000    0.00000000
     atom   19 type  1   force =     0.00000000    0.00000000    0.00000000
     atom   20 type  1   force =     0.00000000    0.00000000    0.00000000
     atom   21 type  2   force =     0.00000000    0.00000000    0.00000000
     atom   22 type  2   force =     0.00000000    0.00000000    0.00000000
     atom   23 type  1   force =     0.00000000    0.00000000    0.00000000
     atom   24 type  1   force =     0.00000000    0.00000000    0.00000000
     atom   25 type  1   force =     0.00000000    0.00000000    0.00000000
     atom   26 type  1   force =     0.00000000    0.00000000    0.00000000
     atom   27 type  1   force =     0.00000000    0.00000000    0.00000000
     atom   28 type  1   force =     0.00000000    0.00000000    0.00000000
     atom   29 type  2   force =     0.00000000    0.00000000    0.00000000
     atom   30 type  2   force =     0.00000000    0.00000000    0.00000000
     atom   31 type  1   force =     0.00000000    0.00000000    0.00000000
     atom   32 type  1   force =     0.00000000    0.00000000    0.00000000
     atom   33 type  2   force =     0.00000000    0.00000000    0.00000000
     atom   34 type  2   force =     0.00000000    0.00000000    0.00000000
     atom   35 type  1   force =     0.00000000    0.00000000    0.00000000
     atom   36 type  1   force =     0.00000000    0.00000000    0.00000000
     atom   37 type  1   force =     0.00000000    0.00000000    0.00000000
     atom   38 type  1   force =     0.00000000    0.00000000    0.00000000
     atom   39 type  1   force =     0.00000000    0.00000000    0.00000000
     atom   40 type  1   force =     0.00000000    0.00000000    0.00000000
     atom   41 type  3   force =     0.00000000    0.00000000    0.00000000
     atom   42 type  3   force =     0.00000000    0.00000000    0.00000000
     atom   43 type  3   force =     0.00000000    0.00000000    0.00000000
     atom   44 type  3   force =     0.00000000    0.00000000    0.00000000
     atom   45 type  3   force =     0.00000000    0.00000000    0.00000000
     atom   46 type  3   force =     0.00000000    0.00000000    0.00000000
     atom   47 type  3   force =     0.00000000    0.00000000    0.00000000
     atom   48 type  3   force =     0.00000000    0.00000000    0.00000000
     The SCF correction term to forces
     atom    1 type  1   force =    -0.00000016    0.00000280    0.00000573
     atom    2 type  1   force =     0.00000128    0.00000243    0.00000652
     atom    3 type  1   force =    -0.00000198   -0.00000287    0.00000900
     atom    4 type  1   force =     0.00000212   -0.00000206    0.00000884
     atom    5 type  2   force =     0.00000517   -0.00000400    0.00004448
     atom    6 type  2   force =    -0.00000502   -0.00000403    0.00004406
     atom    7 type  1   force =     0.00000341    0.00000280    0.00001735
     atom    8 type  1   force =    -0.00000342    0.00000081    0.00001530
     atom    9 type  2   force =    -0.00000298    0.00000501    0.00004114
     atom   10 type  2   force =     0.00000290    0.00000288    0.00004106
     atom   11 type  1   force =     0.00000266   -0.00000199    0.00001475
     atom   12 type  1   force =    -0.00000264    0.00000016    0.00001327
     atom   13 type  1   force =    -0.00000231   -0.00000068    0.00002220
     atom   14 type  1   force =     0.00000218   -0.00000080    0.00002169
     atom   15 type  1   force =     0.00000247    0.00000061    0.00001544
     atom   16 type  1   force =    -0.00000220    0.00000050    0.00001526
     atom   17 type  2   force =     0.00000042   -0.00000081    0.00000962
     atom   18 type  2   force =    -0.00000069   -0.00000094    0.00000966
     atom   19 type  1   force =     0.00000175   -0.00000074    0.00000341
     atom   20 type  1   force =    -0.00000173   -0.00000531    0.00000349
     atom   21 type  2   force =     0.00000608    0.00000122    0.00000953
     atom   22 type  2   force =    -0.00000704    0.00000098    0.00000972
     atom   23 type  1   force =     0.00000183    0.00000045    0.00000350
     atom   24 type  1   force =    -0.00000180    0.00000511    0.00000359
     atom   25 type  1   force =     0.00000239    0.00000070   -0.00001042
     atom   26 type  1   force =    -0.00000211    0.00000061   -0.00001078
     atom   27 type  1   force =    -0.00000250   -0.00000084   -0.00001992
     atom   28 type  1   force =     0.00000237   -0.00000095   -0.00001944
     atom   29 type  2   force =     0.00000522   -0.00000459   -0.00004813
     atom   30 type  2   force =    -0.00000506   -0.00000462   -0.00004780
     atom   31 type  1   force =     0.00000336    0.00000275   -0.00001854
     atom   32 type  1   force =    -0.00000338    0.00000073   -0.00001662
     atom   33 type  2   force =    -0.00000352    0.00000563   -0.00004475
     atom   34 type  2   force =     0.00000344    0.00000348   -0.00004580
     atom   35 type  1   force =     0.00000260   -0.00000178   -0.00001619
     atom   36 type  1   force =    -0.00000260    0.00000040   -0.00001478
     atom   37 type  1   force =    -0.00000216   -0.00000306   -0.00001131
     atom   38 type  1   force =     0.00000231   -0.00000228   -0.00001119
     atom   39 type  1   force =    -0.00000033    0.00000295   -0.00000750
     atom   40 type  1   force =     0.00000143    0.00000256   -0.00000835
     atom   41 type  3   force =     0.00000059    0.00000039    0.00000091
     atom   42 type  3   force =     0.00000060    0.00000041   -0.00000118
     atom   43 type  3   force =    -0.00000024    0.00000000    0.00000081
     atom   44 type  3   force =    -0.00000027   -0.00000003   -0.00000109
     atom   45 type  3   force =     0.00000024    0.00000002    0.00000108
     atom   46 type  3   force =     0.00000026    0.00000000   -0.00000138
     atom   47 type  3   force =    -0.00000020   -0.00000048    0.00000096
     atom   48 type  3   force =    -0.00000022   -0.00000050   -0.00000125

     Total force =     0.271535     Total SCF correction =     0.000149

     BFGS Geometry Optimization
     Energy error            =      0.0E+00 Ry
     Gradient error          =      9.8E-02 Ry/Bohr

     number of scf cycles    =   1
     number of bfgs steps    =   0

     energy             new  =   -3437.8185604249 Ry

     new trust radius        =       0.1015338158 bohr
     new conv_thr            =       0.0000000010 Ry


ATOMIC_POSITIONS (crystal)
O             0.0389582957        0.4527866082        0.2634248368
O             0.4667072794        0.4669026837        0.2721117983
O            -0.0034160175        0.0154905300        0.2985664021
O             0.4942619315       -0.0039468265        0.3014119896
Ru            0.2455116064       -0.0079872904        0.3590061698
Ru            0.7456765440       -0.0081446286        0.3581208772
O             0.2428595248        0.2953979694        0.3619614949
O             0.7511120479        0.2995164096        0.3579215147
Ru            0.0005004542        0.4904813471        0.3608893145
Ru            0.5000229723        0.4917467385        0.3515127837
O             0.2403073124        0.6886427718        0.3555028048
O             0.7525717456        0.6841211602        0.3531395861
O            -0.0070294045       -0.0108669981        0.4119668790
O             0.4975858125       -0.0094583373        0.4116846229
O            -0.0064320584        0.5014163918        0.4467181767
O             0.4919299523        0.5009469065        0.4411120923
Ru           -0.0078577492       -0.0013622915        0.5000010000
Ru            0.4961022963       -0.0013731025        0.5000010000
O             0.2449515834        0.1887276254        0.5000010000
O             0.7427612538        0.1939090381        0.5000010000
Ru            0.2502492724        0.4994187293        0.5000010000
Ru            0.7397086965        0.4993221638        0.5000010000
O             0.2457144275        0.8095683397        0.5000010000
O             0.7422076141        0.8043782136        0.5000010000
O            -0.0064320584        0.5014163918        0.5532828233
O             0.4919299523        0.5009469065        0.5588889077
O            -0.0070294045       -0.0108669981        0.5880341210
O             0.4975858125       -0.0094583373        0.5883163771
Ru            0.2455116064       -0.0079872904        0.6409948302
Ru            0.7456765440       -0.0081446286        0.6418801228
O             0.2428595248        0.2953979694        0.6380395051
O             0.7511120479        0.2995164096        0.6420794853
Ru            0.0005004542        0.4904813471        0.6391116855
Ru            0.5000229723        0.4917467385        0.6484882163
O             0.2403073124        0.6886427718        0.6444981952
O             0.7525717456        0.6841211602        0.6468614139
O            -0.0034160175        0.0154905300        0.7014355979
O             0.4942619315       -0.0039468265        0.6985900104
O             0.0389582957        0.4527866082        0.7365761632
O             0.4667072794        0.4669026837        0.7278892017
H             0.1924891751        0.4555551524        0.2582092843
H             0.1924891751        0.4555551524        0.7417907157
H             0.0060752231        0.2887493198        0.2599979592
H             0.0060752231        0.2887493198        0.7400020408
H             0.4930504429        0.1216237265        0.2721722441
H             0.4930504429        0.1216237265        0.7278277559
H            -0.0020265369        0.9049490072        0.2656770067
H            -0.0020265369        0.9049490072        0.7343229933



     Writing config-only to output data dir /storage/home/mgm6007/ixd4/Maria/Strain0_Files/RuO2-110-0-0234/RuO2-110-0-0234.save/
     NEW-OLD atomic charge density approx. for the potential

     Check: negative core charge=   -0.000001

     negative rho (up, down):  1.350E-04 0.000E+00

     add environment contribution to local potential
     Polarization accuracy = 2.2E-12, # of iterations =  45

     total cpu time spent up to now is    14292.7 secs

     per-process dynamical memory:   224.4 Mb

     Self-consistent Calculation

     iteration #  1     ecut=    50.00 Ry     beta= 0.70
     Davidson diagonalization with overlap
     ethr =  1.00E-06,  avg # of iterations =  8.0

     negative rho (up, down):  3.183E-04 0.000E+00

     add environment contribution to local potential
     Polarization accuracy = 9.6E-12, # of iterations =  46

     total cpu time spent up to now is    14591.0 secs

     total energy              =   -3437.82373676 Ry
     estimated scf accuracy    <       0.02770495 Ry
     electrostatic embedding   =      -0.04376483 Ry
     cavitation energy         =       0.02162080 Ry
     PV energy                 =      -0.08302587 Ry
     correction to one-el term =     181.79933115 Ry

     iteration #  2     ecut=    50.00 Ry     beta= 0.70
     Davidson diagonalization with overlap
     ethr =  7.53E-06,  avg # of iterations =  2.0

     negative rho (up, down):  1.899E-04 0.000E+00

     add environment contribution to local potential
     Polarization accuracy = 8.6E-12, # of iterations =  46

     total cpu time spent up to now is    14913.0 secs

     total energy              =   -3437.82455957 Ry
     estimated scf accuracy    <       0.00947869 Ry
     electrostatic embedding   =      -0.04449529 Ry
     cavitation energy         =       0.02166011 Ry
     PV energy                 =      -0.08299175 Ry
     correction to one-el term =     181.84235049 Ry

     iteration #  3     ecut=    50.00 Ry     beta= 0.70
     Davidson diagonalization with overlap
     ethr =  2.58E-06,  avg # of iterations =  2.0

     negative rho (up, down):  1.339E-04 0.000E+00

     add environment contribution to local potential
     Polarization accuracy = 9.1E-12, # of iterations =  45

     total cpu time spent up to now is    15227.3 secs

     total energy              =   -3437.82441022 Ry
     estimated scf accuracy    <       0.01363739 Ry
     electrostatic embedding   =      -0.04510580 Ry
     cavitation energy         =       0.02165419 Ry
     PV energy                 =      -0.08301610 Ry
     correction to one-el term =     181.67181764 Ry

     iteration #  4     ecut=    50.00 Ry     beta= 0.70
     Davidson diagonalization with overlap
     ethr =  2.58E-06,  avg # of iterations =  1.0

     negative rho (up, down):  5.057E-05 0.000E+00

     add environment contribution to local potential
     Polarization accuracy = 9.0E-12, # of iterations =  45

     total cpu time spent up to now is    15532.2 secs

     total energy              =   -3437.82505080 Ry
     estimated scf accuracy    <       0.00145441 Ry
     electrostatic embedding   =      -0.04579362 Ry
     cavitation energy         =       0.02165449 Ry
     PV energy                 =      -0.08301988 Ry
     correction to one-el term =     181.56559961 Ry

     iteration #  5     ecut=    50.00 Ry     beta= 0.70
     Davidson diagonalization with overlap
     ethr =  3.95E-07,  avg # of iterations =  2.0

     negative rho (up, down):  2.902E-05 0.000E+00

     add environment contribution to local potential
     Polarization accuracy = 8.8E-12, # of iterations =  45

     total cpu time spent up to now is    15874.0 secs

     total energy              =   -3437.82514123 Ry
     estimated scf accuracy    <       0.00076469 Ry
     electrostatic embedding   =      -0.04659186 Ry
     cavitation energy         =       0.02165336 Ry
     PV energy                 =      -0.08302662 Ry
     correction to one-el term =     181.37088574 Ry

     iteration #  6     ecut=    50.00 Ry     beta= 0.70
     Davidson diagonalization with overlap
     ethr =  2.08E-07,  avg # of iterations =  1.0

     negative rho (up, down):  8.858E-06 0.000E+00

     add environment contribution to local potential
     Polarization accuracy = 9.8E-12, # of iterations =  45

     total cpu time spent up to now is    16186.7 secs

     total energy              =   -3437.82514501 Ry
     estimated scf accuracy    <       0.00021341 Ry
     electrostatic embedding   =      -0.04691073 Ry
     cavitation energy         =       0.02165386 Ry
     PV energy                 =      -0.08302810 Ry
     correction to one-el term =     181.27569492 Ry

     iteration #  7     ecut=    50.00 Ry     beta= 0.70
     Davidson diagonalization with overlap
     ethr =  5.80E-08,  avg # of iterations =  2.0

     negative rho (up, down):  4.223E-06 0.000E+00

     add environment contribution to local potential
     Polarization accuracy = 7.5E-12, # of iterations =  45

     total cpu time spent up to now is    16505.4 secs

     total energy              =   -3437.82515543 Ry
     estimated scf accuracy    <       0.00017000 Ry
[...]
     atom   43 type  3   force =    -0.73751216   -2.79322447  -15.18752093
     atom   44 type  3   force =    -0.73751148   -2.79320628   15.18748706
     atom   45 type  3   force =     0.11109712    1.97114190  -16.84552108
     atom   46 type  3   force =     0.11109483    1.97135812   16.84553722
     atom   47 type  3   force =    -0.05912227   -2.38414895  -17.28572661
     atom   48 type  3   force =    -0.05912088   -2.38439069   17.28585833
     The local contribution  to forces
     atom    1 type  1   force =     2.14346440   -1.77863993   91.07506875
     atom    2 type  1   force =    -0.86671979   -0.00659596   96.56995207
     atom    3 type  1   force =     0.35911546    0.62497895   90.15409128
     atom    4 type  1   force =    -0.34242018    2.09150991   90.77089307
     atom    5 type  2   force =     0.30445404    2.32090589  166.08281847
     atom    6 type  2   force =    -0.20368484    2.13362918  167.36958196
     atom    7 type  1   force =    -0.63311678    0.67947804   57.86986356
     atom    8 type  1   force =     0.25092792    0.57631668   61.12888234
     atom    9 type  2   force =     2.15704273   -2.41028884  164.60484714
     atom   10 type  2   force =    -2.14831839   -3.04896533  171.36911423
     atom   11 type  1   force =    -0.28137544   -1.33551588   64.87432485
     atom   12 type  1   force =    -0.05793602   -1.14954227   66.75422380
     atom   13 type  1   force =     0.19480595    0.68039042   37.32166082
     atom   14 type  1   force =    -0.27305475    0.59635909   37.13526961
     atom   15 type  1   force =     0.21362144   -0.48282890   24.27525706
     atom   16 type  1   force =    -0.26000131   -0.36986809   27.35292377
     atom   17 type  2   force =     0.26226320   -0.82393589   -0.00581772
     atom   18 type  2   force =    -0.20097075   -0.92318052   -0.00583119
     atom   19 type  1   force =    -0.00482963   -1.69294642   -0.00242027
     atom   20 type  1   force =    -0.00160413   -1.67156925   -0.00242970
     atom   21 type  2   force =    -1.18918216    0.17550810   -0.00596422
     atom   22 type  2   force =     1.46898964    0.29847744   -0.00597940
     atom   23 type  1   force =     0.04082096    1.75380216   -0.00242515
     atom   24 type  1   force =    -0.03305660    1.69665847   -0.00243064
     atom   25 type  1   force =     0.21363514   -0.48284910  -24.27700557
     atom   26 type  1   force =    -0.25999972   -0.36988192  -27.35467423
     atom   27 type  1   force =     0.19480328    0.68038647  -37.32343233
     atom   28 type  1   force =    -0.27305395    0.59635480  -37.13703048
     atom   29 type  2   force =     0.30446929    2.32091811 -166.08881072
     atom   30 type  2   force =    -0.20370030    2.13364370 -167.37556699
     atom   31 type  1   force =    -0.63308859    0.67949606  -57.87225700
     atom   32 type  1   force =     0.25089235    0.57632426  -61.13130568
     atom   33 type  2   force =     2.15707612   -2.41034387 -164.61073092
     atom   34 type  2   force =    -2.14836760   -3.04903983 -171.37483941
     atom   35 type  1   force =    -0.28133724   -1.33554357  -64.87674548
     atom   36 type  1   force =    -0.05797528   -1.14955458  -66.75665201
     atom   37 type  1   force =     0.35912525    0.62495884  -90.15778716
     atom   38 type  1   force =    -0.34242515    2.09162663  -90.77466221
     atom   39 type  1   force =     2.14347812   -1.77865371  -91.07674743
     atom   40 type  1   force =    -0.86677218   -0.00666650  -96.57141345
     atom   41 type  3   force =    -2.40868353   -0.45869755   15.48493291
     atom   42 type  3   force =    -2.40868353   -0.45869755  -15.48493291
     atom   43 type  3   force =     0.71455222    2.70973528   15.19411449
     atom   44 type  3   force =     0.71455222    2.70973528  -15.19411449
     atom   45 type  3   force =    -0.10903568   -1.88694154   16.79218703
     atom   46 type  3   force =    -0.10903568   -1.88694154  -16.79218703
     atom   47 type  3   force =     0.05616362    2.32016667   17.24132030
     atom   48 type  3   force =     0.05616362    2.32016667  -17.24132030
     The core correction contribution to forces
     atom    1 type  1   force =    -0.01251033    0.01306158   -0.00374511
     atom    2 type  1   force =     0.00046474   -0.00030076   -0.00947726
     atom    3 type  1   force =    -0.00006355    0.01322779    0.00409474
     atom    4 type  1   force =     0.00007731   -0.01439718   -0.00028638
     atom    5 type  2   force =     0.00000000    0.00000000    0.00000000
     atom    6 type  2   force =     0.00000000    0.00000000    0.00000000
     atom    7 type  1   force =    -0.00022275   -0.00061574    0.00199312
     atom    8 type  1   force =     0.00066747   -0.00049637    0.00106074
     atom    9 type  2   force =     0.00000000    0.00000000    0.00000000
     atom   10 type  2   force =     0.00000000    0.00000000    0.00000000
     atom   11 type  1   force =    -0.00035875    0.00065887   -0.00029807
     atom   12 type  1   force =     0.00089941    0.00052839   -0.00078744
     atom   13 type  1   force =    -0.00004269   -0.00071323    0.00034796
     atom   14 type  1   force =     0.00014372   -0.00025836    0.00064521
     atom   15 type  1   force =     0.00011434    0.00054633    0.00226850
     atom   16 type  1   force =     0.00003181    0.00079672   -0.00318083
     atom   17 type  2   force =     0.00000000    0.00000000    0.00000000
     atom   18 type  2   force =     0.00000000    0.00000000    0.00000000
     atom   19 type  1   force =    -0.00023677   -0.00000127   -0.00000198
     atom   20 type  1   force =     0.00023986    0.00006951   -0.00000201
     atom   21 type  2   force =     0.00000000    0.00000000    0.00000000
     atom   22 type  2   force =     0.00000000    0.00000000    0.00000000
     atom   23 type  1   force =    -0.00028714    0.00003981   -0.00000187
     atom   24 type  1   force =     0.00028370   -0.00004187   -0.00000186
     atom   25 type  1   force =     0.00011433    0.00054642   -0.00227107
     atom   26 type  1   force =     0.00003186    0.00079689    0.00317868
     atom   27 type  1   force =    -0.00004270   -0.00071339   -0.00035016
     atom   28 type  1   force =     0.00014373   -0.00025852   -0.00064746
     atom   29 type  2   force =     0.00000000    0.00000000    0.00000000
     atom   30 type  2   force =     0.00000000    0.00000000    0.00000000
     atom   31 type  1   force =    -0.00022272   -0.00061572   -0.00199488
     atom   32 type  1   force =     0.00066737   -0.00049626   -0.00106257
     atom   33 type  2   force =     0.00000000    0.00000000    0.00000000
     atom   34 type  2   force =     0.00000000    0.00000000    0.00000000
     atom   35 type  1   force =    -0.00035858    0.00065879    0.00029618
     atom   36 type  1   force =     0.00089924    0.00052827    0.00078552
     atom   37 type  1   force =    -0.00006354    0.01322978   -0.00409949
     atom   38 type  1   force =     0.00007727   -0.01439942    0.00028242
     atom   39 type  1   force =    -0.01251100    0.01306197    0.00374412
     atom   40 type  1   force =     0.00046465   -0.00030103    0.00947496
     atom   41 type  3   force =     0.00000000    0.00000000    0.00000000
     atom   42 type  3   force =     0.00000000    0.00000000    0.00000000
     atom   43 type  3   force =     0.00000000    0.00000000    0.00000000
     atom   44 type  3   force =     0.00000000    0.00000000    0.00000000
     atom   45 type  3   force =     0.00000000    0.00000000    0.00000000
     atom   46 type  3   force =     0.00000000    0.00000000    0.00000000
     atom   47 type  3   force =     0.00000000    0.00000000    0.00000000
     atom   48 type  3   force =     0.00000000    0.00000000    0.00000000
     The Hubbard contrib.    to forces
     atom    1 type  1   force =     0.00000000    0.00000000    0.00000000
     atom    2 type  1   force =     0.00000000    0.00000000    0.00000000
     atom    3 type  1   force =     0.00000000    0.00000000    0.00000000
     atom    4 type  1   force =     0.00000000    0.00000000    0.00000000
     atom    5 type  2   force =     0.00000000    0.00000000    0.00000000
     atom    6 type  2   force =     0.00000000    0.00000000    0.00000000
     atom    7 type  1   force =     0.00000000    0.00000000    0.00000000
     atom    8 type  1   force =     0.00000000    0.00000000    0.00000000
     atom    9 type  2   force =     0.00000000    0.00000000    0.00000000
     atom   10 type  2   force =     0.00000000    0.00000000    0.00000000
     atom   11 type  1   force =     0.00000000    0.00000000    0.00000000
     atom   12 type  1   force =     0.00000000    0.00000000    0.00000000
     atom   13 type  1   force =     0.00000000    0.00000000    0.00000000
     atom   14 type  1   force =     0.00000000    0.00000000    0.00000000
     atom   15 type  1   force =     0.00000000    0.00000000    0.00000000
     atom   16 type  1   force =     0.00000000    0.00000000    0.00000000
     atom   17 type  2   force =     0.00000000    0.00000000    0.00000000
     atom   18 type  2   force =     0.00000000    0.00000000    0.00000000
     atom   19 type  1   force =     0.00000000    0.00000000    0.00000000
     atom   20 type  1   force =     0.00000000    0.00000000    0.00000000
     atom   21 type  2   force =     0.00000000    0.00000000    0.00000000
     atom   22 type  2   force =     0.00000000    0.00000000    0.00000000
     atom   23 type  1   force =     0.00000000    0.00000000    0.00000000
     atom   24 type  1   force =     0.00000000    0.00000000    0.00000000
     atom   25 type  1   force =     0.00000000    0.00000000    0.00000000
     atom   26 type  1   force =     0.00000000    0.00000000    0.00000000
     atom   27 type  1   force =     0.00000000    0.00000000    0.00000000
     atom   28 type  1   force =     0.00000000    0.00000000    0.00000000
     atom   29 type  2   force =     0.00000000    0.00000000    0.00000000
     atom   30 type  2   force =     0.00000000    0.00000000    0.00000000
     atom   31 type  1   force =     0.00000000    0.00000000    0.00000000
     atom   32 type  1   force =     0.00000000    0.00000000    0.00000000
     atom   33 type  2   force =     0.00000000    0.00000000    0.00000000
     atom   34 type  2   force =     0.00000000    0.00000000    0.00000000
     atom   35 type  1   force =     0.00000000    0.00000000    0.00000000
     atom   36 type  1   force =     0.00000000    0.00000000    0.00000000
     atom   37 type  1   force =     0.00000000    0.00000000    0.00000000
     atom   38 type  1   force =     0.00000000    0.00000000    0.00000000
     atom   39 type  1   force =     0.00000000    0.00000000    0.00000000
     atom   40 type  1   force =     0.00000000    0.00000000    0.00000000
     atom   41 type  3   force =     0.00000000    0.00000000    0.00000000
     atom   42 type  3   force =     0.00000000    0.00000000    0.00000000
     atom   43 type  3   force =     0.00000000    0.00000000    0.00000000
     atom   44 type  3   force =     0.00000000    0.00000000    0.00000000
     atom   45 type  3   force =     0.00000000    0.00000000    0.00000000
     atom   46 type  3   force =     0.00000000    0.00000000    0.00000000
     atom   47 type  3   force =     0.00000000    0.00000000    0.00000000
     atom   48 type  3   force =     0.00000000    0.00000000    0.00000000
     The SCF correction term to forces
     atom    1 type  1   force =     0.00000083    0.00000021   -0.00000124
     atom    2 type  1   force =    -0.00000012    0.00000000   -0.00000145
     atom    3 type  1   force =    -0.00000054    0.00000092   -0.00000123
     atom    4 type  1   force =     0.00000063    0.00000041   -0.00000132
     atom    5 type  2   force =    -0.00000019    0.00000047   -0.00000319
     atom    6 type  2   force =     0.00000031   -0.00000003   -0.00000244
     atom    7 type  1   force =     0.00000014    0.00000031   -0.00000195
     atom    8 type  1   force =    -0.00000018   -0.00000090   -0.00000123
     atom    9 type  2   force =    -0.00000020   -0.00000036   -0.00000410
     atom   10 type  2   force =    -0.00000009   -0.00000036   -0.00000444
     atom   11 type  1   force =     0.00000037   -0.00000060   -0.00000115
     atom   12 type  1   force =    -0.00000033    0.00000076   -0.00000084
     atom   13 type  1   force =    -0.00000110    0.00000003   -0.00000111
     atom   14 type  1   force =     0.00000106   -0.00000016   -0.00000121
     atom   15 type  1   force =     0.00000003    0.00000001   -0.00000079
     atom   16 type  1   force =    -0.00000007   -0.00000003   -0.00000125
     atom   17 type  2   force =    -0.00000067   -0.00000007    0.00000001
     atom   18 type  2   force =     0.00000054   -0.00000024    0.00000001
     atom   19 type  1   force =    -0.00000010   -0.00000020    0.00000000
     atom   20 type  1   force =     0.00000006   -0.00000055    0.00000000
     atom   21 type  2   force =     0.00000032    0.00000008    0.00000001
     atom   22 type  2   force =    -0.00000005    0.00000002    0.00000001
     atom   23 type  1   force =    -0.00000008    0.00000015    0.00000000
     atom   24 type  1   force =     0.00000004    0.00000055    0.00000000
     atom   25 type  1   force =     0.00000003    0.00000001    0.00000079
     atom   26 type  1   force =    -0.00000007   -0.00000003    0.00000126
     atom   27 type  1   force =    -0.00000109    0.00000003    0.00000111
     atom   28 type  1   force =     0.00000106   -0.00000016    0.00000122
     atom   29 type  2   force =    -0.00000019    0.00000047    0.00000320
     atom   30 type  2   force =     0.00000031   -0.00000003    0.00000244
     atom   31 type  1   force =     0.00000014    0.00000031    0.00000195
     atom   32 type  1   force =    -0.00000018   -0.00000090    0.00000123
     atom   33 type  2   force =    -0.00000019   -0.00000036    0.00000411
     atom   34 type  2   force =    -0.00000010   -0.00000036    0.00000445
     atom   35 type  1   force =     0.00000037   -0.00000060    0.00000116
     atom   36 type  1   force =    -0.00000033    0.00000076    0.00000084
     atom   37 type  1   force =    -0.00000053    0.00000092    0.00000123
     atom   38 type  1   force =     0.00000063    0.00000041    0.00000132
     atom   39 type  1   force =     0.00000083    0.00000021    0.00000123
     atom   40 type  1   force =    -0.00000012    0.00000000    0.00000145
     atom   41 type  3   force =     0.00000001   -0.00000002   -0.00000017
     atom   42 type  3   force =     0.00000001   -0.00000002    0.00000017
     atom   43 type  3   force =     0.00000006    0.00000002   -0.00000014
     atom   44 type  3   force =     0.00000006    0.00000002    0.00000014
     atom   45 type  3   force =     0.00000001    0.00000005   -0.00000017
     atom   46 type  3   force =     0.00000001    0.00000005    0.00000017
     atom   47 type  3   force =    -0.00000003    0.00000004   -0.00000016
     atom   48 type  3   force =    -0.00000003    0.00000004    0.00000016

     Total force =     0.001050     Total SCF correction =     0.000013
     Energy error            =      1.7E-06 Ry
     Gradient error          =      4.0E-04 Ry/Bohr

     number of scf cycles    =  39
     number of bfgs steps    =  38

     energy             old  =   -3437.8446980571 Ry
     energy             new  =   -3437.8446997605 Ry

     CASE: energy            _new < energy            _old

     new trust radius        =       0.0023386524 bohr
     new conv_thr            =            1.0E-11 Ry


ATOMIC_POSITIONS (crystal)
O             0.0331566532        0.4375278282        0.2629430620
O             0.4698268863        0.4514684523        0.2709920866
O            -0.0033272713        0.0134294083        0.2975314007
O             0.4948908114        0.0029285178        0.2998426311
Ru            0.2468904565       -0.0074594838        0.3589225005
Ru            0.7452648382       -0.0078038280        0.3580888063
O             0.2432872367        0.2983055106        0.3628945806
O             0.7502440076        0.3007450485        0.3588609799
Ru           -0.0010315714        0.4910908656        0.3603754837
Ru            0.4977736303        0.4918698879        0.3503026415
O             0.2421491756        0.6867507401        0.3539094436
O             0.7508381551        0.6836061513        0.3517293263
O            -0.0057879756       -0.0113807682        0.4115224496
O             0.4971942841       -0.0091669363        0.4115864163
O            -0.0058318662        0.5059224265        0.4466321896
O             0.4947724430        0.5054773608        0.4411526652
Ru           -0.0049796488        0.0020691772        0.5000010000
Ru            0.4954718669        0.0023397223        0.5000010000
O             0.2454123509        0.1926847613        0.5000010000
O             0.7447828886        0.1933281642        0.5000010000
Ru            0.2513486408        0.5032426792        0.5000010000
Ru            0.7396937384        0.5032234524        0.5000010000
O             0.2464270095        0.8133311426        0.5000010000
O             0.7439726562        0.8126380030        0.5000010000
O            -0.0058318662        0.5059224265        0.5533688104
O             0.4947724430        0.5054773608        0.5588483348
O            -0.0057879756       -0.0113807682        0.5884785504
O             0.4971942841       -0.0091669363        0.5884145837
Ru            0.2468904565       -0.0074594838        0.6410784995
Ru            0.7452648382       -0.0078038280        0.6419121937
O             0.2432872367        0.2983055106        0.6371064194
O             0.7502440076        0.3007450485        0.6411400201
Ru           -0.0010315714        0.4910908656        0.6396255163
Ru            0.4977736303        0.4918698879        0.6496983585
O             0.2421491756        0.6867507401        0.6460915564
O             0.7508381551        0.6836061513        0.6482716737
O            -0.0033272713        0.0134294083        0.7024705993
O             0.4948908114        0.0029285178        0.7001593689
O             0.0331566532        0.4375278282        0.7370579380
O             0.4698268863        0.4514684523        0.7290089134
H             0.1873625633        0.4508155497        0.2565052199
H             0.1873625633        0.4508155497        0.7434947801
H             0.0079803743        0.2791636613        0.2625506451
H             0.0079803743        0.2791636613        0.7374493549
H             0.4936902944        0.1349581091        0.2751369946
H             0.4936902944        0.1349581091        0.7248630054
H            -0.0027728766        0.9045399471        0.2658089543
H            -0.0027728766        0.9045399471        0.7341910457



     Writing config-only to output data dir /storage/home/mgm6007/ixd4/Maria/Strain0_Files/RuO2-110-0-0234/RuO2-110-0-0234.save/
     NEW-OLD atomic charge density approx. for the potential

     Check: negative core charge=   -0.000001

     negative rho (up, down):  1.376E-04 0.000E+00

     add environment contribution to local potential
     Polarization accuracy = 7.7E-12, # of iterations =  46

     total cpu time spent up to now is   207395.8 secs

     per-process dynamical memory:   224.4 Mb

     Self-consistent Calculation

     iteration #  1     ecut=    50.00 Ry     beta= 0.70
     Davidson diagonalization with overlap
     ethr =  1.00E-06,  avg # of iterations =  2.0

     Threshold (ethr) on eigenvalues was too large:
     Diagonalizing with lowered threshold

     Davidson diagonalization with overlap
     ethr =  5.80E-10,  avg # of iterations =  5.0

     negative rho (up, down):  1.341E-04 0.000E+00

     add environment contribution to local potential
