
     Program PWSCF v.7.2 starts on 21Jul2023 at 17: 3: 1 
        Git branch: heads/qe-7.2
        Last git commit: b4c5e8deeb7d1863e7553a87b45f8d22c21926a5
        Last git commit date: Mon Mar 27 16:12:09 2023 +0000
        Last git commit subject: Merge branch 'merge_fix_hubbard' into 'develop'

     This program is part of the open-source Quantum ESPRESSO suite
     for quantum simulation of materials; please cite
         "P. Giannozzi et al., J. Phys.:Condens. Matter 21 395502 (2009);
         "P. Giannozzi et al., J. Phys.:Condens. Matter 29 465901 (2017);
         "P. Giannozzi et al., J. Chem. Phys. 152 154105 (2020);
          URL http://www.quantum-espresso.org", 
     in publications or presentations arising from this work. More details at
     http://www.quantum-espresso.org/quote

     Parallel version (MPI), running on    20 processors

     MPI processes distributed on     1 nodes
     92458 MiB available memory on the printing compute node when the environment starts
 
     Reading input from RuO2-110-0-02.in

     Current dimensions of program PWSCF are:
     Max number of different atomic species (ntypx) = 10
     Max number of k-points (npk) =  40000
     Max angular momentum in pseudopotentials (lmaxx) =  4
 
     Reading input from environ.in:
     * Environ restarting
     * setting up water environment
     * using electronic solvent mode
     * setting boundary derivatives method to SCCS default
     

     File /storage/home/mgm6007/ixd4/Maria/Strain2_Files/RuO2-110-0-02/RuO2-110-0-02.update deleted, as requested

     File /storage/home/mgm6007/ixd4/Maria/Strain2_Files/RuO2-110-0-02/RuO2-110-0-02.bfgs deleted, as requested
     file O.pbe-n-kjpaw_psl.0.1.UPF: wavefunction(s)  2P renormalized
     Message from routine setup:
     using ibrav=0 with symmetry is DISCOURAGED, use correct ibrav instead
 
     R & G space division:  proc/nbgrp/npool/nimage =      20
     Subspace diagonalization in iterative solution of the eigenvalue problem:
     one sub-group per band group will be used
     scalapack distributed-memory algorithm (size of sub-group:  2*  2 procs)

 
     Parallelization info
     --------------------
     sticks:   dense  smooth     PW     G-vecs:    dense   smooth      PW
     Min         279     111     29                55537    14039    1893
     Max         280     112     30                55546    14052    1904
     Sum        5595    2237    595              1110843   280917   37967
 
     Using Slab Decomposition
 


     bravais-lattice index     =            0
     lattice parameter (alat)  =      12.2467  a.u.
     unit-cell volume          =    5883.2137 (a.u.)^3
     number of atoms/cell      =           44
     number of atomic types    =            3
     number of electrons       =       364.00
     number of Kohn-Sham states=          218
     kinetic-energy cutoff     =      50.0000  Ry
     charge density cutoff     =     500.0000  Ry
     scf convergence threshold =      1.0E-09
     mixing beta               =       0.7000
     number of iterations used =            8  local-TF  mixing
     energy convergence thresh.=      1.0E-04
     force convergence thresh. =      1.0E-04
     Exchange-correlation= PBE
                           (   1   4   3   4   0   0   0)
     nstep                     =          200


     ================================================================================
 
                                  Environ Setup Summary

     ================================================================================
 
     Please cite

          O. Andreussi, I. Dabo and N. Marzari, J. Chem. Phys. 136, 064102 (2012)

     in publications or presentations arising from this work.

     ================================================================================
 
     Parameters
     ==========

     compensation onset threshold      =               0.1000E+00
     static permittivity               =                    78.30
     surface tension in input (dyn/cm) =                    47.90
     surface tension in internal units =               0.6153E-04
     external pressure in input (GPa)  =                    -0.36
     external pressure in inter. units =              -0.2447E-04

     Solvent Boundary
     ================

     solvent mode                      =               electronic
     derivatives method                =                    chain
     numerical core for derivatives    =                      fft
     switching function adopted        =                     SCCS
     density limit for vacuum region   =               0.5000E-02
     density limit for bulk solvent    =               0.1000E-03

     Electrostatic Setup
     ===================

     electrostatic problem to solve    =              generalized
     numerical solver adopted          =                       cg
     type of auxiliary density adopted =                     none
     numerical core for poisson        =                      fft
     type of pbc corrections           =                parabolic
     numerical core for corrections    =                      1da

     ================================================================================
 

     celldm(1)=  12.246684  celldm(2)=   0.000000  celldm(3)=   0.000000
     celldm(4)=   0.000000  celldm(5)=   0.000000  celldm(6)=   0.000000

     crystal axes: (cart. coord. in units of alat)
               a(1) = (   1.000000   0.000000   0.000000 )  
               a(2) = (   0.000000   0.937861   0.000000 )  
               a(3) = (   0.000000   0.000000   3.415235 )  

     reciprocal axes: (cart. coord. in units 2 pi/alat)
               b(1) = (  1.000000  0.000000  0.000000 )  
               b(2) = (  0.000000  1.066256  0.000000 )  
               b(3) = (  0.000000  0.000000  0.292806 )  


     PseudoPot. # 1 for O  read from file:
     /gpfs/group/ixd4/default/Simon/pseudopotentials/materialscloud/SSSP_1.3.0_PBE_efficiency/O.pbe-n-kjpaw_psl.0.1.UPF
     MD5 check sum: 0234752ac141de4415c5fc33072bef88
     Pseudo is Projector augmented-wave + core cor, Zval =  6.0
     Generated using "atomic" code by A. Dal Corso  v.5.0.99 svn rev. 10869
     Shape of augmentation charge: BESSEL
     Using radial grid of 1095 points,  4 beta functions with: 
                l(1) =   0
                l(2) =   0
                l(3) =   1
                l(4) =   1
     Q(r) pseudized with 0 coefficients 


     PseudoPot. # 2 for Ru read from file:
     /gpfs/group/ixd4/default/Simon/pseudopotentials/materialscloud/SSSP_1.3.0_PBE_efficiency/Ru_ONCV_PBE-1.0.oncvpsp.upf
     MD5 check sum: be037bb81c227cfb9b1461a9f099f4bd
     Pseudo is Norm-conserving, Zval = 16.0
     Generated using ONCVPSP code by D. R. Hamann
     Using radial grid of 1458 points,  6 beta functions with: 
                l(1) =   0
                l(2) =   0
                l(3) =   1
                l(4) =   1
                l(5) =   2
                l(6) =   2

     PseudoPot. # 3 for H  read from file:
     /gpfs/group/ixd4/default/Simon/pseudopotentials/materialscloud/SSSP_1.3.0_PBE_efficiency/H.pbe-rrkjus_psl.1.0.0.UPF
     MD5 check sum: f52b6d4d1c606e5624b1dc7b2218f220
     Pseudo is Ultrasoft, Zval =  1.0
     Generated using "atomic" code by A. Dal Corso  v.5.1
     Using radial grid of  929 points,  2 beta functions with: 
                l(1) =   0
                l(2) =   0
     Q(r) pseudized with 0 coefficients 


     atomic species   valence    mass     pseudopotential
        O              6.00    15.99940     O ( 1.00)
        Ru            16.00   101.07000     Ru( 1.00)
        H              1.00     1.00794     H ( 1.00)

      2 Sym. Ops. (no inversion) found



   Cartesian axes

     site n.     atom                  positions (alat units)
         1           O   tau(   1) = (  -0.0066158   0.4460763   0.9258900  )
         2           O   tau(   2) = (   0.4952535   0.4684377   0.9314110  )
         3           O   tau(   3) = (   0.0001672  -0.0002223   1.0237038  )
         4           O   tau(   4) = (   0.4992523  -0.0008576   1.0515585  )
         5           Ru  tau(   5) = (   0.2564083   0.0009229   1.2177694  )
         6           Ru  tau(   6) = (   0.7435393   0.0010647   1.2170228  )
         7           O   tau(   7) = (   0.2488259   0.2919946   1.2300962  )
         8           O   tau(   8) = (   0.7516633   0.2917174   1.2247047  )
         9           Ru  tau(   9) = (  -0.0003449   0.4693575   1.2239568  )
        10           Ru  tau(  10) = (   0.5007707   0.4693427   1.1964655  )
        11           O   tau(  11) = (   0.2455540   0.6478464   1.2206966  )
        12           O   tau(  12) = (   0.7536314   0.6469537   1.2224530  )
        13           O   tau(  13) = (  -0.0006326   0.0000895   1.4066872  )
        14           O   tau(  14) = (   0.5007238  -0.0009627   1.4059083  )
        15           O   tau(  15) = (   0.0022201   0.4703239   1.5254459  )
        16           O   tau(  16) = (   0.5019939   0.4710175   1.5113259  )
        17           Ru  tau(  17) = (   0.0006383   0.0003579   1.7076210  )
        18           Ru  tau(  18) = (   0.5010648   0.0011004   1.7076210  )
        19           O   tau(  19) = (   0.2505667   0.1773288   1.7076210  )
        20           O   tau(  20) = (   0.7505787   0.1773003   1.7076210  )
        21           Ru  tau(  21) = (   0.2566502   0.4697630   1.7076210  )
        22           Ru  tau(  22) = (   0.7472294   0.4699085   1.7076210  )
        23           O   tau(  23) = (   0.2509384   0.7623729   1.7076210  )
        24           O   tau(  24) = (   0.7505729   0.7620534   1.7076210  )
        25           O   tau(  25) = (   0.0022201   0.4703239   1.8897928  )
        26           O   tau(  26) = (   0.5019939   0.4710175   1.9039127  )
        27           O   tau(  27) = (  -0.0006326   0.0000895   2.0085515  )
        28           O   tau(  28) = (   0.5007238  -0.0009627   2.0093304  )
        29           Ru  tau(  29) = (   0.2564083   0.0009229   2.1974692  )
        30           Ru  tau(  30) = (   0.7435393   0.0010647   2.1982158  )
        31           O   tau(  31) = (   0.2488259   0.2919946   2.1851425  )
        32           O   tau(  32) = (   0.7516633   0.2917174   2.1905339  )
        33           Ru  tau(  33) = (  -0.0003449   0.4693575   2.1912819  )
        34           Ru  tau(  34) = (   0.5007707   0.4693427   2.2187731  )
        35           O   tau(  35) = (   0.2455540   0.6478464   2.1945420  )
        36           O   tau(  36) = (   0.7536314   0.6469537   2.1927856  )
        37           O   tau(  37) = (   0.0001672  -0.0002223   2.3915383  )
        38           O   tau(  38) = (   0.4992523  -0.0008576   2.3636835  )
        39           O   tau(  39) = (  -0.0066158   0.4460763   2.4893487  )
        40           O   tau(  40) = (   0.4952535   0.4684377   2.4838276  )
        41           H   tau(  41) = (   0.1223682   0.4859014   0.8580568  )
        42           H   tau(  42) = (   0.1223682   0.4859014   2.5571784  )
        43           H   tau(  43) = (  -0.0012634   0.1030496   0.9127060  )
        44           H   tau(  44) = (  -0.0012634   0.1030496   2.5025292  )

     number of k points=     2  Marzari-Vanderbilt smearing, width (Ry)=  0.0300
                       cart. coord. in units 2pi/alat
        k(    1) = (   0.2500000   0.2665641   0.0000000), wk =   1.0000000
        k(    2) = (  -0.2500000   0.2665641   0.0000000), wk =   1.0000000

     Dense  grid:  1110843 G-vectors     FFT dimensions: (  90,  81, 300)

     Smooth grid:   280917 G-vectors     FFT dimensions: (  60,  54, 192)

     Estimated max dynamical RAM per process >     181.76 MB

     Estimated total dynamical RAM >       3.55 GB

     Check: negative core charge=   -0.000001

     Initial potential from superposition of free atoms

     starting charge     363.9933, renormalised to     364.0000

     add environment contribution to local potential
     Polarization accuracy = 6.9E-12, # of iterations =  25

     negative rho (up, down):  3.305E-05 0.000E+00
     Starting wfcs are  236 randomized atomic wfcs
     Checking if some PAW data can be deallocated... 

     total cpu time spent up to now is      615.1 secs

     per-process dynamical memory:   150.6 Mb

     Self-consistent Calculation

     iteration #  1     ecut=    50.00 Ry     beta= 0.70
     Davidson diagonalization with overlap
     ethr =  1.00E-02,  avg # of iterations =  2.0

     total cpu time spent up to now is      751.8 secs

     total energy              =   -3430.19933593 Ry
     estimated scf accuracy    <      10.00702187 Ry
     electrostatic embedding   =      -0.00174316 Ry
     cavitation energy         =       0.01978208 Ry
     PV energy                 =      -0.08374600 Ry
     correction to one-el term =     215.73302565 Ry

     iteration #  2     ecut=    50.00 Ry     beta= 0.70
     Davidson diagonalization with overlap
     ethr =  2.75E-03,  avg # of iterations =  2.0

     total cpu time spent up to now is      902.1 secs

     total energy              =   -3432.43842949 Ry
     estimated scf accuracy    <       2.12147162 Ry
     electrostatic embedding   =      -0.00245930 Ry
     cavitation energy         =       0.01989323 Ry
     PV energy                 =      -0.08383897 Ry
     correction to one-el term =     215.73491036 Ry

     iteration #  3     ecut=    50.00 Ry     beta= 0.70
     Davidson diagonalization with overlap
     ethr =  5.83E-04,  avg # of iterations =  1.0

     total cpu time spent up to now is     1037.1 secs

     total energy              =   -3432.65260996 Ry
     estimated scf accuracy    <       0.57006541 Ry
     electrostatic embedding   =      -0.00276894 Ry
     cavitation energy         =       0.01994221 Ry
     PV energy                 =      -0.08388484 Ry
     correction to one-el term =     215.73571762 Ry

     iteration #  4     ecut=    50.00 Ry     beta= 0.70
     Davidson diagonalization with overlap
     ethr =  1.57E-04,  avg # of iterations =  2.0

     total cpu time spent up to now is     1176.4 secs

     total energy              =   -3432.69924973 Ry
     estimated scf accuracy    <       0.28030520 Ry
     electrostatic embedding   =      -0.00281252 Ry
     cavitation energy         =       0.02009152 Ry
     PV energy                 =      -0.08342826 Ry
     correction to one-el term =     215.73556842 Ry

     iteration #  5     ecut=    50.00 Ry     beta= 0.70
     Davidson diagonalization with overlap
     ethr =  7.70E-05,  avg # of iterations =  1.0

     add environment contribution to local potential
     Polarization accuracy = 4.3E-12, # of iterations =  36

     total cpu time spent up to now is     1309.9 secs

     total energy              =   -3432.69849177 Ry
     estimated scf accuracy    <       0.09072489 Ry
     electrostatic embedding   =      -0.00290464 Ry
     cavitation energy         =       0.02035273 Ry
     PV energy                 =      -0.08279977 Ry
     correction to one-el term =     215.73549923 Ry

     iteration #  6     ecut=    50.00 Ry     beta= 0.70
     Davidson diagonalization with overlap
     ethr =  2.49E-05,  avg # of iterations =  2.0

     add environment contribution to local potential
     Polarization accuracy = 4.5E-12, # of iterations =  38

     total cpu time spent up to now is     1465.1 secs

     total energy              =   -3432.72257601 Ry
     estimated scf accuracy    <       0.05739555 Ry
     electrostatic embedding   =      -0.02682394 Ry
     cavitation energy         =       0.02073218 Ry
     PV energy                 =      -0.08193764 Ry
     correction to one-el term =     193.82132885 Ry

     iteration #  7     ecut=    50.00 Ry     beta= 0.70
     Davidson diagonalization with overlap
     ethr =  1.58E-05,  avg # of iterations =  4.5

     add environment contribution to local potential
     Polarization accuracy = 3.0E-12, # of iterations =  39

     total cpu time spent up to now is     1607.6 secs

     total energy              =   -3432.72342692 Ry
     estimated scf accuracy    <       0.02710785 Ry
     electrostatic embedding   =      -0.03039034 Ry
     cavitation energy         =       0.02091460 Ry
     PV energy                 =      -0.08154120 Ry
     correction to one-el term =     192.18475379 Ry

     iteration #  8     ecut=    50.00 Ry     beta= 0.70
     Davidson diagonalization with overlap
     ethr =  7.45E-06,  avg # of iterations = 12.0

     add environment contribution to local potential
     Polarization accuracy = 2.3E-12, # of iterations =  48

     total cpu time spent up to now is     1768.0 secs

     total energy              =   -3432.71879009 Ry
     estimated scf accuracy    <       0.02348740 Ry
     electrostatic embedding   =      -0.03361000 Ry
     cavitation energy         =       0.02106170 Ry
     PV energy                 =      -0.08120908 Ry
     correction to one-el term =     191.00342893 Ry

     iteration #  9     ecut=    50.00 Ry     beta= 0.70
     Davidson diagonalization with overlap
     ethr =  6.45E-06,  avg # of iterations =  2.0

     add environment contribution to local potential
     Polarization accuracy = 2.9E-12, # of iterations =  50

     total cpu time spent up to now is     1912.9 secs

     total energy              =   -3432.72254642 Ry
     estimated scf accuracy    <       0.03891864 Ry
     electrostatic embedding   =      -0.04794337 Ry
     cavitation energy         =       0.02156437 Ry
     PV energy                 =      -0.08018504 Ry
     correction to one-el term =     187.69652395 Ry

     iteration # 10     ecut=    50.00 Ry     beta= 0.70
     Davidson diagonalization with overlap
     ethr =  6.45E-06,  avg # of iterations =  1.0

     add environment contribution to local potential
     Polarization accuracy = 1.5E-12, # of iterations =  49

     total cpu time spent up to now is     2078.4 secs

     total energy              =   -3432.72163911 Ry
     estimated scf accuracy    <       0.02552499 Ry
     electrostatic embedding   =      -0.05467872 Ry
     cavitation energy         =       0.02168937 Ry
     PV energy                 =      -0.07989370 Ry
     correction to one-el term =     186.79884394 Ry

     iteration # 11     ecut=    50.00 Ry     beta= 0.70
     Davidson diagonalization with overlap
     ethr =  6.45E-06,  avg # of iterations =  1.0

     add environment contribution to local potential
     Polarization accuracy = 3.4E-12, # of iterations =  48

     total cpu time spent up to now is     2229.6 secs

     total energy              =   -3432.72236007 Ry
     estimated scf accuracy    <       0.01038164 Ry
     electrostatic embedding   =      -0.05244144 Ry
     cavitation energy         =       0.02149572 Ry
     PV energy                 =      -0.08005656 Ry
     correction to one-el term =     187.91931984 Ry

     iteration # 12     ecut=    50.00 Ry     beta= 0.70
     Davidson diagonalization with overlap
     ethr =  2.85E-06,  avg # of iterations =  1.0

     negative rho (up, down):  6.070E-06 0.000E+00

     add environment contribution to local potential
     Polarization accuracy = 8.8E-12, # of iterations =  46

     total cpu time spent up to now is     2380.2 secs

     total energy              =   -3432.72279522 Ry
     estimated scf accuracy    <       0.00746228 Ry
     electrostatic embedding   =      -0.05117026 Ry
     cavitation energy         =       0.02137851 Ry
     PV energy                 =      -0.08014391 Ry
     correction to one-el term =     188.81126800 Ry

     iteration # 13     ecut=    50.00 Ry     beta= 0.70
     Davidson diagonalization with overlap
     ethr =  2.05E-06,  avg # of iterations =  1.0

     negative rho (up, down):  4.499E-05 0.000E+00

     add environment contribution to local potential
     Polarization accuracy = 5.1E-12, # of iterations =  46

     total cpu time spent up to now is     2530.8 secs

     total energy              =   -3432.72336265 Ry
     estimated scf accuracy    <       0.00276759 Ry
     electrostatic embedding   =      -0.04982783 Ry
     cavitation energy         =       0.02124653 Ry
     PV energy                 =      -0.08023642 Ry
     correction to one-el term =     189.92253415 Ry

     iteration # 14     ecut=    50.00 Ry     beta= 0.70
     Davidson diagonalization with overlap
     ethr =  7.60E-07,  avg # of iterations =  1.0

     negative rho (up, down):  3.498E-05 0.000E+00

     add environment contribution to local potential
     Polarization accuracy = 5.4E-12, # of iterations =  45

     total cpu time spent up to now is     2680.1 secs

     total energy              =   -3432.72380072 Ry
     estimated scf accuracy    <       0.00118314 Ry
     electrostatic embedding   =      -0.04825634 Ry
     cavitation energy         =       0.02117293 Ry
     PV energy                 =      -0.08029145 Ry
     correction to one-el term =     190.85048613 Ry

     iteration # 15     ecut=    50.00 Ry     beta= 0.70
     Davidson diagonalization with overlap
     ethr =  3.25E-07,  avg # of iterations =  2.0

     negative rho (up, down):  1.242E-04 0.000E+00

     add environment contribution to local potential
     Polarization accuracy = 3.8E-12, # of iterations =  45

     total cpu time spent up to now is     2822.0 secs

     total energy              =   -3432.72422138 Ry
     estimated scf accuracy    <       0.00029345 Ry
     electrostatic embedding   =      -0.04502463 Ry
     cavitation energy         =       0.02107972 Ry
     PV energy                 =      -0.08040758 Ry
     correction to one-el term =     191.95705755 Ry

     iteration # 16     ecut=    50.00 Ry     beta= 0.70
     Davidson diagonalization with overlap
     ethr =  8.06E-08,  avg # of iterations =  2.0

     negative rho (up, down):  4.925E-06 0.000E+00

     add environment contribution to local potential
     Polarization accuracy = 5.4E-12, # of iterations =  45

     total cpu time spent up to now is     2964.7 secs

     total energy              =   -3432.72433787 Ry
     estimated scf accuracy    <       0.00009809 Ry
     electrostatic embedding   =      -0.04243797 Ry
     cavitation energy         =       0.02107627 Ry
     PV energy                 =      -0.08043251 Ry
     correction to one-el term =     192.63598954 Ry

     iteration # 17     ecut=    50.00 Ry     beta= 0.70
     Davidson diagonalization with overlap
     ethr =  2.69E-08,  avg # of iterations =  2.0

     negative rho (up, down):  9.061E-06 0.000E+00

     add environment contribution to local potential
     Polarization accuracy = 5.9E-12, # of iterations =  45

     total cpu time spent up to now is     3098.6 secs

     total energy              =   -3432.72435769 Ry
     estimated scf accuracy    <       0.00002998 Ry
     electrostatic embedding   =      -0.04195339 Ry
     cavitation energy         =       0.02111237 Ry
     PV energy                 =      -0.08040374 Ry
     correction to one-el term =     192.61242840 Ry

     iteration # 18     ecut=    50.00 Ry     beta= 0.70
     Davidson diagonalization with overlap
     ethr =  8.24E-09,  avg # of iterations =  2.0

     negative rho (up, down):  2.526E-04 0.000E+00

     add environment contribution to local potential
     Polarization accuracy = 7.9E-12, # of iterations =  45

     total cpu time spent up to now is     3254.4 secs

     total energy              =   -3432.72436909 Ry
     estimated scf accuracy    <       0.00001583 Ry
     electrostatic embedding   =      -0.04186459 Ry
     cavitation energy         =       0.02111666 Ry
     PV energy                 =      -0.08039749 Ry
     correction to one-el term =     192.63857156 Ry

     iteration # 19     ecut=    50.00 Ry     beta= 0.70
     Davidson diagonalization with overlap
     ethr =  4.35E-09,  avg # of iterations =  2.0

     negative rho (up, down):  2.115E-04 0.000E+00

     add environment contribution to local potential
     Polarization accuracy = 9.2E-12, # of iterations =  45

     total cpu time spent up to now is     3392.7 secs

     total energy              =   -3432.72437590 Ry
     estimated scf accuracy    <       0.00000248 Ry
     electrostatic embedding   =      -0.04147534 Ry
     cavitation energy         =       0.02112833 Ry
     PV energy                 =      -0.08038077 Ry
     correction to one-el term =     192.74638353 Ry

     iteration # 20     ecut=    50.00 Ry     beta= 0.70
     Davidson diagonalization with overlap
     ethr =  6.81E-10,  avg # of iterations =  2.0

     negative rho (up, down):  1.277E-04 0.000E+00

     add environment contribution to local potential
     Polarization accuracy = 7.0E-12, # of iterations =  46

     total cpu time spent up to now is     3551.0 secs

     total energy              =   -3432.72437654 Ry
     estimated scf accuracy    <       0.00000120 Ry
     electrostatic embedding   =      -0.04153837 Ry
     cavitation energy         =       0.02113108 Ry
     PV energy                 =      -0.08037282 Ry
     correction to one-el term =     192.73821456 Ry

     iteration # 21     ecut=    50.00 Ry     beta= 0.70
     Davidson diagonalization with overlap
     ethr =  3.30E-10,  avg # of iterations =  2.0

     negative rho (up, down):  1.583E-04 0.000E+00

     add environment contribution to local potential
     Polarization accuracy = 5.3E-12, # of iterations =  46

     total cpu time spent up to now is     3693.3 secs

     total energy              =   -3432.72437701 Ry
     estimated scf accuracy    <       0.00000057 Ry
     electrostatic embedding   =      -0.04159165 Ry
     cavitation energy         =       0.02113383 Ry
     PV energy                 =      -0.08036714 Ry
     correction to one-el term =     192.72013591 Ry

     iteration # 22     ecut=    50.00 Ry     beta= 0.70
     Davidson diagonalization with overlap
     ethr =  1.57E-10,  avg # of iterations =  2.0

     negative rho (up, down):  1.732E-04 0.000E+00

     add environment contribution to local potential
     Polarization accuracy = 2.4E-12, # of iterations =  46

     total cpu time spent up to now is     3856.3 secs

     total energy              =   -3432.72437727 Ry
     estimated scf accuracy    <       0.00000034 Ry
     electrostatic embedding   =      -0.04156954 Ry
     cavitation energy         =       0.02113345 Ry
     PV energy                 =      -0.08036733 Ry
     correction to one-el term =     192.72474580 Ry

     iteration # 23     ecut=    50.00 Ry     beta= 0.70
     Davidson diagonalization with overlap
     ethr =  9.47E-11,  avg # of iterations =  1.5

     negative rho (up, down):  1.607E-04 0.000E+00

     add environment contribution to local potential
     Polarization accuracy = 2.6E-12, # of iterations =  46

     total cpu time spent up to now is     4004.2 secs

     total energy              =   -3432.72437752 Ry
     estimated scf accuracy    <       0.00000018 Ry
     electrostatic embedding   =      -0.04157365 Ry
     cavitation energy         =       0.02113336 Ry
     PV energy                 =      -0.08036671 Ry
     correction to one-el term =     192.72460054 Ry

     iteration # 24     ecut=    50.00 Ry     beta= 0.70
     Davidson diagonalization with overlap
     ethr =  4.98E-11,  avg # of iterations =  2.0

     negative rho (up, down):  1.591E-04 0.000E+00

     add environment contribution to local potential
     Polarization accuracy = 2.4E-12, # of iterations =  46

     total cpu time spent up to now is     4145.2 secs

     total energy              =   -3432.72437782 Ry
     estimated scf accuracy    <       0.00000013 Ry
     electrostatic embedding   =      -0.04159186 Ry
     cavitation energy         =       0.02113343 Ry
     PV energy                 =      -0.08036595 Ry
     correction to one-el term =     192.71915759 Ry

     iteration # 25     ecut=    50.00 Ry     beta= 0.70
     Davidson diagonalization with overlap
     ethr =  3.49E-11,  avg # of iterations =  1.0

     negative rho (up, down):  1.605E-04 0.000E+00

     add environment contribution to local potential
     Polarization accuracy = 9.8E-12, # of iterations =  46

     total cpu time spent up to now is     4280.5 secs

     total energy              =   -3432.72437803 Ry
     estimated scf accuracy    <       0.00000009 Ry
     electrostatic embedding   =      -0.04158900 Ry
     cavitation energy         =       0.02113349 Ry
     PV energy                 =      -0.08036597 Ry
     correction to one-el term =     192.71819081 Ry

     iteration # 26     ecut=    50.00 Ry     beta= 0.70
     Davidson diagonalization with overlap
     ethr =  2.59E-11,  avg # of iterations =  2.0

     negative rho (up, down):  1.559E-04 0.000E+00

     add environment contribution to local potential
     Polarization accuracy = 9.7E-12, # of iterations =  46

     total cpu time spent up to now is     4426.5 secs

     total energy              =   -3432.72437833 Ry
     estimated scf accuracy    <       0.00000009 Ry
     electrostatic embedding   =      -0.04158774 Ry
     cavitation energy         =       0.02113351 Ry
     PV energy                 =      -0.08036591 Ry
     correction to one-el term =     192.71766444 Ry

     iteration # 27     ecut=    50.00 Ry     beta= 0.70
     Davidson diagonalization with overlap
     ethr =  2.35E-11,  avg # of iterations =  2.0

     negative rho (up, down):  1.474E-04 0.000E+00

     add environment contribution to local potential
     Polarization accuracy = 2.6E-12, # of iterations =  46

     total cpu time spent up to now is     4561.7 secs

     total energy              =   -3432.72437898 Ry
     estimated scf accuracy    <       0.00000008 Ry
     electrostatic embedding   =      -0.04158333 Ry
     cavitation energy         =       0.02113357 Ry
     PV energy                 =      -0.08036615 Ry
     correction to one-el term =     192.71652512 Ry

     iteration # 28     ecut=    50.00 Ry     beta= 0.70
     Davidson diagonalization with overlap
     ethr =  2.18E-11,  avg # of iterations =  2.0

     negative rho (up, down):  1.442E-04 0.000E+00

     add environment contribution to local potential
     Polarization accuracy = 9.4E-12, # of iterations =  46

     total cpu time spent up to now is     4715.4 secs

     total energy              =   -3432.72437961 Ry
     estimated scf accuracy    <       0.00000007 Ry
     electrostatic embedding   =      -0.04157990 Ry
     cavitation energy         =       0.02113374 Ry
     PV energy                 =      -0.08036628 Ry
     correction to one-el term =     192.71601276 Ry

     iteration # 29     ecut=    50.00 Ry     beta= 0.70
     Davidson diagonalization with overlap
     ethr =  1.84E-11,  avg # of iterations =  1.0

     negative rho (up, down):  1.400E-04 0.000E+00

     add environment contribution to local potential
     Polarization accuracy = 9.9E-12, # of iterations =  45

     total cpu time spent up to now is     4875.0 secs

     total energy              =   -3432.72438006 Ry
     estimated scf accuracy    <       0.00000006 Ry
     electrostatic embedding   =      -0.04157803 Ry
     cavitation energy         =       0.02113378 Ry
     PV energy                 =      -0.08036636 Ry
     correction to one-el term =     192.71604296 Ry

     iteration # 30     ecut=    50.00 Ry     beta= 0.70
     Davidson diagonalization with overlap
     ethr =  1.75E-11,  avg # of iterations =  1.0

     negative rho (up, down):  1.377E-04 0.000E+00

     add environment contribution to local potential
     Polarization accuracy = 9.2E-12, # of iterations =  46

     total cpu time spent up to now is     5014.9 secs

     total energy              =   -3432.72438087 Ry
     estimated scf accuracy    <       0.00000006 Ry
     electrostatic embedding   =      -0.04157596 Ry
     cavitation energy         =       0.02113384 Ry
     PV energy                 =      -0.08036646 Ry
     correction to one-el term =     192.71632985 Ry

     iteration # 31     ecut=    50.00 Ry     beta= 0.70
     Davidson diagonalization with overlap
     ethr =  1.62E-11,  avg # of iterations =  1.0

     negative rho (up, down):  1.411E-04 0.000E+00

     add environment contribution to local potential
     Polarization accuracy = 9.5E-12, # of iterations =  45

     total cpu time spent up to now is     5176.4 secs

     total energy              =   -3432.72438203 Ry
     estimated scf accuracy    <       0.00000006 Ry
     electrostatic embedding   =      -0.04157588 Ry
     cavitation energy         =       0.02113387 Ry
     PV energy                 =      -0.08036647 Ry
     correction to one-el term =     192.71646495 Ry

     iteration # 32     ecut=    50.00 Ry     beta= 0.70
     Davidson diagonalization with overlap
     ethr =  1.58E-11,  avg # of iterations =  2.0

     negative rho (up, down):  1.473E-04 0.000E+00

     add environment contribution to local potential
     Polarization accuracy = 7.7E-12, # of iterations =  45

     total cpu time spent up to now is     5305.6 secs

     total energy              =   -3432.72438486 Ry
     estimated scf accuracy    <       0.00000007 Ry
     electrostatic embedding   =      -0.04157614 Ry
     cavitation energy         =       0.02113377 Ry
     PV energy                 =      -0.08036653 Ry
     correction to one-el term =     192.71877390 Ry

     iteration # 33     ecut=    50.00 Ry     beta= 0.70
     Davidson diagonalization with overlap
     ethr =  1.58E-11,  avg # of iterations =  5.0

     negative rho (up, down):  1.578E-04 0.000E+00

     add environment contribution to local potential
     Polarization accuracy = 6.0E-12, # of iterations =  45

     total cpu time spent up to now is     5450.7 secs

     total energy              =   -3432.72439313 Ry
     estimated scf accuracy    <       0.00000005 Ry
     electrostatic embedding   =      -0.04157802 Ry
     cavitation energy         =       0.02113365 Ry
     PV energy                 =      -0.08036646 Ry
     correction to one-el term =     192.72038435 Ry

     iteration # 34     ecut=    50.00 Ry     beta= 0.70
     Davidson diagonalization with overlap
     ethr =  1.43E-11,  avg # of iterations =  2.0

     negative rho (up, down):  1.653E-04 0.000E+00

     add environment contribution to local potential
     Polarization accuracy = 5.2E-12, # of iterations =  45

     total cpu time spent up to now is     5600.9 secs

     total energy              =   -3432.72439836 Ry
     estimated scf accuracy    <       0.00000001 Ry
     electrostatic embedding   =      -0.04158003 Ry
     cavitation energy         =       0.02113351 Ry
     PV energy                 =      -0.08036632 Ry
     correction to one-el term =     192.72069105 Ry

     iteration # 35     ecut=    50.00 Ry     beta= 0.70
     Davidson diagonalization with overlap
     ethr =  3.57E-12,  avg # of iterations =  5.0

     negative rho (up, down):  1.623E-04 0.000E+00

     add environment contribution to local potential
     Polarization accuracy = 4.3E-12, # of iterations =  46

     total cpu time spent up to now is     5765.8 secs

     total energy              =   -3432.72440098 Ry
     estimated scf accuracy    <          8.5E-09 Ry
     electrostatic embedding   =      -0.04158119 Ry
     cavitation energy         =       0.02113350 Ry
     PV energy                 =      -0.08036618 Ry
     correction to one-el term =     192.71929189 Ry

     iteration # 36     ecut=    50.00 Ry     beta= 0.70
     Davidson diagonalization with overlap
     ethr =  2.32E-12,  avg # of iterations =  2.0

     negative rho (up, down):  1.581E-04 0.000E+00

     add environment contribution to local potential
     Polarization accuracy = 4.5E-12, # of iterations =  45

     total cpu time spent up to now is     5915.1 secs

     total energy              =   -3432.72440199 Ry
     estimated scf accuracy    <          2.2E-09 Ry
     electrostatic embedding   =      -0.04158087 Ry
     cavitation energy         =       0.02113353 Ry
     PV energy                 =      -0.08036617 Ry
     correction to one-el term =     192.71962296 Ry

     iteration # 37     ecut=    50.00 Ry     beta= 0.70
     Davidson diagonalization with overlap
     ethr =  6.10E-13,  avg # of iterations =  5.0

     negative rho (up, down):  1.546E-04 0.000E+00

     add environment contribution to local potential
     Polarization accuracy = 5.0E-12, # of iterations =  45

     total cpu time spent up to now is     6075.3 secs

     total energy              =   -3432.72440276 Ry
     estimated scf accuracy    <          1.1E-09 Ry
     electrostatic embedding   =      -0.04157931 Ry
     cavitation energy         =       0.02113362 Ry
     PV energy                 =      -0.08036619 Ry
     correction to one-el term =     192.71894919 Ry

     iteration # 38     ecut=    50.00 Ry     beta= 0.70
     Davidson diagonalization with overlap
     ethr =  3.02E-13,  avg # of iterations =  2.0

     negative rho (up, down):  1.527E-04 0.000E+00

     add environment contribution to local potential
     Polarization accuracy = 4.8E-12, # of iterations =  46

     total cpu time spent up to now is     6216.7 secs

     total energy              =   -3432.72440316 Ry
     estimated scf accuracy    <          1.3E-09 Ry
     electrostatic embedding   =      -0.04157854 Ry
     cavitation energy         =       0.02113370 Ry
     PV energy                 =      -0.08036615 Ry
     correction to one-el term =     192.71803950 Ry

     iteration # 39     ecut=    50.00 Ry     beta= 0.70
     Davidson diagonalization with overlap
     ethr =  3.02E-13,  avg # of iterations =  2.0

     negative rho (up, down):  1.516E-04 0.000E+00

     the potential shift due to the Gaussian-smeared nuclei is    -1.3223 ev

     total cpu time spent up to now is     6374.6 secs

     End of self-consistent calculation

          k = 0.2500 0.2666 0.0000 ( 35123 PWs)   bands (ev):

   -78.6721 -78.6596 -78.1587 -78.1467 -78.1381 -78.1261 -78.0403 -78.0282
   -77.8124 -77.7885 -77.7560 -77.7486 -49.1968 -49.1843 -48.5786 -48.5660
   -48.3991 -48.3871 -48.3685 -48.3565 -48.2694 -48.2661 -48.2570 -48.2539
   -48.1616 -48.1497 -48.0709 -48.0593 -48.0551 -48.0491 -48.0435 -48.0430
   -48.0369 -48.0247 -47.9829 -47.9692 -47.9581 -47.9461 -47.8513 -47.7912
   -47.7791 -47.7536 -47.6974 -47.6164 -47.6051 -47.5950 -47.5870 -47.5729
   -24.3670 -24.2369 -24.0444 -23.8519 -23.8168 -23.7817 -23.7108 -23.5942
   -23.4917 -23.4017 -23.3022 -23.1947 -23.1841 -23.1155 -23.1059 -23.0400
   -23.0307 -22.9647 -22.9063 -22.8780 -22.8523 -22.8116 -22.7380 -22.6232
   -22.4656 -22.3456 -22.2762 -22.1648 -12.4838 -12.4648 -12.3331 -12.2563
   -12.0431 -11.9076 -11.8515 -11.8188 -11.7116 -11.6038 -11.5611 -11.4881
   -11.4703 -11.3898 -11.3585 -11.3217 -11.2502 -11.2370 -11.2080 -11.0950
   -11.0418 -10.9891 -10.8730 -10.7508 -10.6244 -10.5080 -10.4010 -10.3070
   -10.2413 -10.2249 -10.1002  -9.9680  -9.9112  -9.8308  -9.7943  -9.6629
    -9.5895  -9.5562  -9.4805  -9.3445  -9.2922  -9.2036  -9.1735  -9.1612
    -9.0464  -8.9532  -8.7844  -8.7721  -8.6876  -8.6076  -8.5684  -8.5551
    -8.5238  -8.4874  -8.4485  -8.3644  -8.3509  -8.2594  -8.2187  -8.0776
    -8.0348  -7.9547  -7.9498  -7.8189  -7.7984  -7.7634  -7.5970  -7.5893
    -7.4563  -7.3636  -7.3395  -7.3130  -7.2811  -7.1293  -7.0349  -7.0048
    -6.9167  -6.9077  -6.7797  -6.7002  -6.6715  -6.5262  -6.4416  -6.4036
    -5.5099  -5.4756  -5.3865  -5.3733  -5.3242  -5.3174  -5.2521  -5.2281
    -5.1955  -5.1326  -5.1025  -5.0032  -4.9729  -4.9491  -4.9150  -4.7935
    -4.7505  -4.6697  -4.6345  -4.6327  -4.5060  -4.3692  -4.3403  -4.2831
    -4.1815  -4.1371  -3.9161  -3.8908  -3.7573  -3.5871  -3.5590  -3.5575
    -3.5158  -3.4947  -3.2734  -3.1396  -2.4909  -2.3407  -2.3291  -2.1169
    -1.9542  -1.9066  -1.5490  -1.0044  -0.9546  -0.7618  -0.6991  -0.6931
    -0.5321  -0.5117  -0.4423  -0.2986  -0.1092  -0.0604   0.0904   0.2665
     0.3660   0.3721

          k =-0.2500 0.2666 0.0000 ( 35123 PWs)   bands (ev):

   -78.6721 -78.6596 -78.1587 -78.1467 -78.1381 -78.1261 -78.0403 -78.0282
   -77.8124 -77.7885 -77.7560 -77.7486 -49.1968 -49.1843 -48.5786 -48.5661
   -48.3989 -48.3870 -48.3686 -48.3566 -48.2694 -48.2661 -48.2570 -48.2539
   -48.1617 -48.1498 -48.0699 -48.0583 -48.0561 -48.0492 -48.0442 -48.0430
   -48.0371 -48.0248 -47.9829 -47.9692 -47.9581 -47.9462 -47.8514 -47.7912
   -47.7791 -47.7536 -47.6975 -47.6162 -47.6053 -47.5950 -47.5870 -47.5729
   -24.3672 -24.2372 -24.0446 -23.8528 -23.8186 -23.7802 -23.7064 -23.5929
   -23.4923 -23.4001 -23.3060 -23.1997 -23.1899 -23.1142 -23.1039 -23.0384
   -23.0260 -22.9570 -22.9049 -22.8822 -22.8574 -22.8112 -22.7386 -22.6225
   -22.4654 -22.3451 -22.2762 -22.1653 -12.4802 -12.4617 -12.3342 -12.2567
   -12.0423 -11.9101 -11.8539 -11.8259 -11.7107 -11.5897 -11.5648 -11.4940
   -11.4743 -11.3960 -11.3625 -11.3336 -11.2846 -11.2142 -11.1764 -11.1191
   -11.0218 -10.9554 -10.8874 -10.7725 -10.6095 -10.5215 -10.3905 -10.3040
   -10.2750 -10.1807 -10.1013  -9.9650  -9.8816  -9.8422  -9.8086  -9.6709
    -9.5949  -9.5283  -9.4872  -9.4014  -9.3411  -9.2241  -9.1600  -9.0780
    -9.0471  -8.8945  -8.8236  -8.7912  -8.6888  -8.5922  -8.5825  -8.5366
    -8.5146  -8.4812  -8.4487  -8.3976  -8.3458  -8.2447  -8.1871  -8.0867
    -8.0598  -7.9729  -7.9513  -7.8357  -7.8021  -7.7296  -7.5799  -7.5718
    -7.4712  -7.3745  -7.3476  -7.3070  -7.3040  -7.1661  -7.0512  -6.9651
    -6.8833  -6.8756  -6.7818  -6.7098  -6.7085  -6.5272  -6.4532  -6.3944
    -5.5165  -5.4778  -5.4098  -5.3784  -5.3729  -5.2742  -5.2536  -5.1705
    -5.1364  -5.1312  -5.0934  -5.0316  -4.9698  -4.9271  -4.9165  -4.8024
    -4.7704  -4.7198  -4.6250  -4.6082  -4.5248  -4.3853  -4.3608  -4.3122
    -4.1395  -4.1258  -3.9183  -3.8930  -3.7556  -3.5895  -3.5603  -3.5568
    -3.5135  -3.4928  -3.2717  -3.1410  -2.4898  -2.3372  -2.3253  -2.1185
    -1.9538  -1.9075  -1.5481  -1.0020  -0.9502  -0.7537  -0.7017  -0.6942
    -0.5459  -0.5035  -0.4471  -0.2948  -0.1090  -0.0627   0.1018   0.2653
     0.3647   0.3743

     the Fermi energy is    -4.3959 ev

!    total energy              =   -3432.72440334 Ry
     estimated scf accuracy    <          7.1E-10 Ry
     smearing contrib. (-TS)   =       0.04001384 Ry
     internal energy E=F+TS    =   -3432.76441718 Ry

     The total energy is F=E-TS. E is the sum of the following terms:
     one-electron contribution =  -25389.25314724 Ry
     hartree contribution      =   12671.80208111 Ry
     xc contribution           =    -446.12803354 Ry
     ewald contribution        =    9804.75920325 Ry
     one-center paw contrib.   =    -266.56156881 Ry
     electrostatic embedding   =      -0.04157815 Ry
     cavitation energy         =       0.02113372 Ry
     PV energy                 =      -0.08036616 Ry
     correction to one-el term =     192.71785863 Ry

     WARNING: you are using the parabolic pbc correction;
              the potential shift above must be added to 
              band and Fermi energies.

     convergence has been achieved in  39 iterations

     negative rho (up, down):  1.516E-04 0.000E+00

     Forces acting on atoms (cartesian axes, Ry/au):

     atom    1 type  1   force =     0.00173894   -0.00048145    0.00076869
     atom    2 type  1   force =    -0.00087551   -0.00004398    0.00107505
     atom    3 type  1   force =    -0.00033971    0.00028018    0.00106875
     atom    4 type  1   force =     0.00136113   -0.00022466   -0.00072046
     atom    5 type  2   force =     0.00062276   -0.00019764   -0.00085050
     atom    6 type  2   force =    -0.00062234   -0.00027885    0.00026061
     atom    7 type  1   force =    -0.00061198   -0.00042815   -0.00077695
     atom    8 type  1   force =     0.00051228   -0.00049070   -0.00098714
     atom    9 type  2   force =    -0.00014113   -0.00001162   -0.00096634
     atom   10 type  2   force =    -0.00051643   -0.00040595   -0.00081913
     atom   11 type  1   force =    -0.00023069    0.00010137   -0.00165713
     atom   12 type  1   force =    -0.00001039   -0.00014627   -0.00127175
     atom   13 type  1   force =     0.00076730    0.00022941   -0.00103684
     atom   14 type  1   force =    -0.00153530   -0.00053822    0.00217560
     atom   15 type  1   force =     0.00171699   -0.00012477   -0.00092811
     atom   16 type  1   force =    -0.00019839    0.00014724    0.00066144
     atom   17 type  2   force =    -0.00009556    0.00008732    0.00000000
     atom   18 type  2   force =    -0.00083330    0.00014491    0.00000000
     atom   19 type  1   force =     0.00084971    0.00006065    0.00000000
     atom   20 type  1   force =    -0.00155167   -0.00007575    0.00000000
     atom   21 type  2   force =    -0.00246418    0.00007165    0.00000000
     atom   22 type  2   force =     0.00033606    0.00017196    0.00000000
     atom   23 type  1   force =     0.00084879    0.00012384    0.00000000
     atom   24 type  1   force =    -0.00160290    0.00029899    0.00000000
     atom   25 type  1   force =     0.00171699   -0.00012477    0.00092811
     atom   26 type  1   force =    -0.00019839    0.00014724   -0.00066144
     atom   27 type  1   force =     0.00076730    0.00022941    0.00103684
     atom   28 type  1   force =    -0.00153530   -0.00053822   -0.00217560
     atom   29 type  2   force =     0.00062276   -0.00019764    0.00085050
     atom   30 type  2   force =    -0.00062234   -0.00027885   -0.00026061
     atom   31 type  1   force =    -0.00061198   -0.00042815    0.00077695
     atom   32 type  1   force =     0.00051228   -0.00049070    0.00098714
     atom   33 type  2   force =    -0.00014113   -0.00001162    0.00096634
     atom   34 type  2   force =    -0.00051643   -0.00040595    0.00081913
     atom   35 type  1   force =    -0.00023069    0.00010137    0.00165713
     atom   36 type  1   force =    -0.00001039   -0.00014627    0.00127175
     atom   37 type  1   force =    -0.00033971    0.00028018   -0.00106875
     atom   38 type  1   force =     0.00136113   -0.00022466    0.00072046
     atom   39 type  1   force =     0.00173894   -0.00048145   -0.00076869
     atom   40 type  1   force =    -0.00087551   -0.00004398   -0.00107505
     atom   41 type  3   force =     0.00023515    0.00112998    0.00064466
     atom   42 type  3   force =     0.00023515    0.00112998   -0.00064466
     atom   43 type  3   force =     0.00038385    0.00104231    0.00151011
     atom   44 type  3   force =     0.00038385    0.00104231   -0.00151011
     The non-local contrib.  to forces
     atom    1 type  1   force =     1.69848971    0.52651271    0.25652598
     atom    2 type  1   force =    -0.00976677    0.00386822    1.30334806
     atom    3 type  1   force =    -0.01145636    1.32855839   -0.35541907
     atom    4 type  1   force =    -0.00316329    0.02313053    1.10611934
     atom    5 type  2   force =     0.03731587    0.00247193   -0.01231958
     atom    6 type  2   force =    -0.03864172    0.00434998   -0.01559109
     atom    7 type  1   force =     0.06476628   -0.03519321   -0.14100354
     atom    8 type  1   force =    -0.08499312   -0.03799817   -0.09036082
     atom    9 type  2   force =     0.01064833    0.00413190    0.01924880
     atom   10 type  2   force =    -0.00132614    0.00168956   -0.05354759
     atom   11 type  1   force =     0.04518371    0.02371047   -0.05882727
     atom   12 type  1   force =    -0.05952948    0.00042354   -0.04624006
     atom   13 type  1   force =     0.00034049    0.00051804    0.10742251
     atom   14 type  1   force =     0.00084095    0.03511748   -0.05953420
     atom   15 type  1   force =    -0.01051519   -0.01344972   -0.03707478
     atom   16 type  1   force =    -0.00246312   -0.00391527    0.27197087
     atom   17 type  2   force =    -0.00022445    0.00103059    0.00000000
     atom   18 type  2   force =    -0.00317421   -0.00038016    0.00000000
     atom   19 type  1   force =     0.03239263    0.04049129    0.00000000
     atom   20 type  1   force =    -0.02553850    0.03414705    0.00000000
     atom   21 type  2   force =    -0.00284018    0.00099099    0.00000000
     atom   22 type  2   force =     0.01831619   -0.00175912    0.00000000
     atom   23 type  1   force =     0.02332006   -0.03950212    0.00000000
     atom   24 type  1   force =    -0.01511439   -0.03540117    0.00000000
     atom   25 type  1   force =    -0.01051519   -0.01344972    0.03707478
     atom   26 type  1   force =    -0.00246312   -0.00391527   -0.27197087
     atom   27 type  1   force =     0.00034049    0.00051804   -0.10742251
     atom   28 type  1   force =     0.00084095    0.03511748    0.05953420
     atom   29 type  2   force =     0.03731587    0.00247193    0.01231958
     atom   30 type  2   force =    -0.03864172    0.00434998    0.01559109
     atom   31 type  1   force =     0.06476628   -0.03519321    0.14100354
     atom   32 type  1   force =    -0.08499312   -0.03799817    0.09036082
     atom   33 type  2   force =     0.01064833    0.00413190   -0.01924880
     atom   34 type  2   force =    -0.00132614    0.00168956    0.05354759
     atom   35 type  1   force =     0.04518371    0.02371047    0.05882727
     atom   36 type  1   force =    -0.05952948    0.00042354    0.04624006
     atom   37 type  1   force =    -0.01145636    1.32855839    0.35541907
     atom   38 type  1   force =    -0.00316329    0.02313053   -1.10611934
     atom   39 type  1   force =     1.69848971    0.52651271   -0.25652598
     atom   40 type  1   force =    -0.00976677    0.00386822   -1.30334806
     atom   41 type  3   force =    -0.09079436   -0.02843256    0.05159666
     atom   42 type  3   force =    -0.09079436   -0.02843256   -0.05159666
     atom   43 type  3   force =     0.00116997   -0.07205965    0.08037103
     atom   44 type  3   force =     0.00116997   -0.07205965   -0.08037103
     The ionic contribution  to forces
     atom    1 type  1   force =    -2.95482580   -0.79908144  -95.30614684
     atom    2 type  1   force =     0.07791561    0.06810948 -100.94933321
     atom    3 type  1   force =    -0.00071059   -2.63222117  -91.02119969
     atom    4 type  1   force =     0.08220233   -0.16514745  -94.53702277
     atom    5 type  2   force =    -3.27516739   -0.29281698 -172.14619725
     atom    6 type  2   force =     3.24062475   -0.50519159 -172.62746267
     atom    7 type  1   force =    -0.00933683   -0.73037259  -61.20686744
     atom    8 type  1   force =     0.03045857   -0.77451844  -62.28033750
     atom    9 type  2   force =     0.01496993    0.89244558 -167.56304738
     atom   10 type  2   force =     0.08132027    0.44696543 -174.21323469
     atom   11 type  1   force =    -0.02789189    0.81724778  -63.28964532
     atom   12 type  1   force =     0.10335413    1.03128321  -63.07837344
     atom   13 type  1   force =    -0.00531127   -0.11147789  -39.05199885
     atom   14 type  1   force =    -0.03318408   -0.18076926  -37.21764277
     atom   15 type  1   force =    -0.00023541    0.06947020  -24.90535344
     atom   16 type  1   force =     0.00213749    0.10405659  -27.68917173
     atom   17 type  2   force =     0.08473848    0.03480175   -0.00043878
     atom   18 type  2   force =    -0.08807974    0.10528440   -0.00044555
     atom   19 type  1   force =    -0.13399771    0.99958253   -0.00007926
     atom   20 type  1   force =     0.13381071    1.08835296   -0.00007858
     atom   21 type  2   force =     0.87295879    0.02369817   -0.00025039
     atom   22 type  2   force =    -0.70964411   -0.11813307   -0.00024958
     atom   23 type  1   force =    -0.10361315   -1.04172588   -0.00007776
     atom   24 type  1   force =     0.07505008   -1.02311361   -0.00007790
     atom   25 type  1   force =    -0.00023694    0.06947063   24.90513241
     atom   26 type  1   force =     0.00213725    0.10405770   27.68901373
     atom   27 type  1   force =    -0.00531235   -0.11147924   39.05229988
     atom   28 type  1   force =    -0.03318471   -0.18077202   37.21796301
     atom   29 type  2   force =    -3.27510331   -0.29282419  172.14645182
     atom   30 type  2   force =     3.24056382   -0.50519948  172.62771550
     atom   31 type  1   force =    -0.00933284   -0.73040199   61.20693075
     atom   32 type  1   force =     0.03045530   -0.77454522   62.28040251
     atom   33 type  2   force =     0.01495981    0.89245088  167.56317049
     atom   34 type  2   force =     0.08132601    0.44696691  174.21337785
     atom   35 type  1   force =    -0.02788992    0.81727965   63.28970644
     atom   36 type  1   force =     0.10335309    1.03131208   63.07843953
     atom   37 type  1   force =    -0.00070907   -2.63245787   91.02117172
     atom   38 type  1   force =     0.08220110   -0.16514581   94.53715862
     atom   39 type  1   force =    -2.95491695   -0.79910491   95.30623943
     atom   40 type  1   force =     0.07791800    0.06810936  100.94939629
     atom   41 type  3   force =     2.64227889    0.93953661  -16.53482404
     atom   42 type  3   force =     2.64237047    0.93956436   16.53485266
     atom   43 type  3   force =    -0.03420897    1.78810915  -17.54491907
     atom   44 type  3   force =    -0.03421182    1.78834467   17.54505324
     The local contribution  to forces
     atom    1 type  1   force =     1.17621288    0.31498917   95.06011906
     atom    2 type  1   force =     0.00271099   -0.06584967   99.60131836
     atom    3 type  1   force =    -0.00952997    1.27269952   91.42919137
     atom    4 type  1   force =    -0.06074866    0.13381117   93.39866707
     atom    5 type  2   force =     3.27683047    0.27595760  172.18466423
     atom    6 type  2   force =    -3.23823005    0.48169760  172.63474090
     atom    7 type  1   force =    -0.04281889    0.76874868   61.35844051
     atom    8 type  1   force =     0.04154781    0.82098968   62.36103229
     atom    9 type  2   force =    -0.06102249   -0.87849854  167.55236425
     atom   10 type  2   force =    -0.04147867   -0.43989912  174.22217910
     atom   11 type  1   force =    -0.00745001   -0.84040409   63.35337946
     atom   12 type  1   force =    -0.05343193   -1.03585186   63.10313118
     atom   13 type  1   force =     0.00281379    0.10908524   38.94881882
     atom   14 type  1   force =     0.03365223    0.14428559   37.27498653
     atom   15 type  1   force =     0.01048413   -0.05541449   24.94127151
     atom   16 type  1   force =     0.00208953   -0.09933921   27.41814287
     atom   17 type  2   force =    -0.08708439   -0.03701774   -0.00586579
     atom   18 type  2   force =     0.09288078   -0.10575466   -0.00585277
     atom   19 type  1   force =     0.10396895   -1.03985082   -0.00245187
     atom   20 type  1   force =    -0.11124058   -1.12236896   -0.00245395
     atom   21 type  2   force =    -0.86964635   -0.02355864   -0.00602346
     atom   22 type  2   force =     0.68890315    0.12124557   -0.00602681
     atom   23 type  1   force =     0.08247047    1.08087985   -0.00245435
     atom   24 type  1   force =    -0.06277118    1.05828726   -0.00245561
     atom   25 type  1   force =     0.01048012   -0.05541469  -24.94303769
     atom   26 type  1   force =     0.00208869   -0.09934175  -27.41991712
     atom   27 type  1   force =     0.00281185    0.10908789  -38.95059161
     atom   28 type  1   force =     0.03365339    0.14428530  -37.27673006
     atom   29 type  2   force =     3.27684755    0.27595505 -172.19074078
     atom   30 type  2   force =    -3.23824308    0.48170576 -172.64081699
     atom   31 type  1   force =    -0.04279645    0.76875947  -61.36087767
     atom   32 type  1   force =     0.04152650    0.82100017  -62.36348036
     atom   33 type  2   force =    -0.06102734   -0.87852748 -167.55819890
     atom   34 type  2   force =    -0.04149155   -0.43989759 -174.22791446
     atom   35 type  1   force =    -0.00742014   -0.84041479  -63.35582803
     atom   36 type  1   force =    -0.05345961   -1.03586292  -63.10558272
     atom   37 type  1   force =    -0.00953007    1.27280486  -91.43293974
     atom   38 type  1   force =    -0.06074524    0.13380219  -93.40254587
     atom   39 type  1   force =     1.17624805    0.31497482  -95.06167861
     atom   40 type  1   force =     0.00269762   -0.06585215  -99.60268776
     atom   41 type  3   force =    -2.56834769   -0.91201538   16.50450898
     atom   42 type  3   force =    -2.56834769   -0.91201538  -16.50450898
     atom   43 type  3   force =     0.02749434   -1.72056048   17.49647800
     atom   44 type  3   force =     0.02749434   -1.72056048  -17.49647800
     The core correction contribution to forces
     atom    1 type  1   force =    -0.01717428   -0.00531542   -0.00292913
     atom    2 type  1   force =     0.00014114   -0.00002338   -0.01091881
     atom    3 type  1   force =     0.00009340   -0.01335377    0.00284565
     atom    4 type  1   force =     0.00000990   -0.00027049   -0.01100864
     atom    5 type  2   force =     0.00000000    0.00000000    0.00000000
     atom    6 type  2   force =     0.00000000    0.00000000    0.00000000
     atom    7 type  1   force =    -0.00089981   -0.00012346    0.00144805
     atom    8 type  1   force =     0.00112816   -0.00007033    0.00094552
     atom    9 type  2   force =     0.00000000    0.00000000    0.00000000
     atom   10 type  2   force =     0.00000000    0.00000000    0.00000000
     atom   11 type  1   force =    -0.00070192    0.00030230    0.00062891
     atom   12 type  1   force =     0.00087756    0.00045283    0.00045101
     atom   13 type  1   force =     0.00000067    0.00000747   -0.00105114
     atom   14 type  1   force =     0.00000838   -0.00042533    0.00058812
     atom   15 type  1   force =     0.00012757    0.00017286    0.00015399
     atom   16 type  1   force =     0.00002891    0.00002210   -0.00336500
     atom   17 type  2   force =     0.00000000    0.00000000    0.00000000
     atom   18 type  2   force =     0.00000000    0.00000000    0.00000000
     atom   19 type  1   force =    -0.00034674   -0.00009073   -0.00000205
     atom   20 type  1   force =     0.00025325   -0.00003913   -0.00000205
     atom   21 type  2   force =     0.00000000    0.00000000    0.00000000
     atom   22 type  2   force =     0.00000000    0.00000000    0.00000000
     atom   23 type  1   force =    -0.00024682    0.00009991   -0.00000202
     atom   24 type  1   force =     0.00015830    0.00002407   -0.00000204
     atom   25 type  1   force =     0.00012753    0.00017293   -0.00015619
     atom   26 type  1   force =     0.00002892    0.00002210    0.00336297
     atom   27 type  1   force =     0.00000068    0.00000749    0.00104894
     atom   28 type  1   force =     0.00000839   -0.00042539   -0.00059047
     atom   29 type  2   force =     0.00000000    0.00000000    0.00000000
     atom   30 type  2   force =     0.00000000    0.00000000    0.00000000
     atom   31 type  1   force =    -0.00089977   -0.00012347   -0.00144967
     atom   32 type  1   force =     0.00112811   -0.00007031   -0.00094725
     atom   33 type  2   force =     0.00000000    0.00000000    0.00000000
     atom   34 type  2   force =     0.00000000    0.00000000    0.00000000
     atom   35 type  1   force =    -0.00070180    0.00030235   -0.00063069
     atom   36 type  1   force =     0.00087750    0.00045283   -0.00045272
     atom   37 type  1   force =     0.00009344   -0.01335579   -0.00285014
     atom   38 type  1   force =     0.00000990   -0.00027067    0.01100445
     atom   39 type  1   force =    -0.01717498   -0.00531565    0.00292656
     atom   40 type  1   force =     0.00014108   -0.00002339    0.01091710
     atom   41 type  3   force =     0.00000000    0.00000000    0.00000000
     atom   42 type  3   force =     0.00000000    0.00000000    0.00000000
     atom   43 type  3   force =     0.00000000    0.00000000    0.00000000
     atom   44 type  3   force =     0.00000000    0.00000000    0.00000000
     The Hubbard contrib.    to forces
     atom    1 type  1   force =     0.00000000    0.00000000    0.00000000
     atom    2 type  1   force =     0.00000000    0.00000000    0.00000000
     atom    3 type  1   force =     0.00000000    0.00000000    0.00000000
     atom    4 type  1   force =     0.00000000    0.00000000    0.00000000
     atom    5 type  2   force =     0.00000000    0.00000000    0.00000000
     atom    6 type  2   force =     0.00000000    0.00000000    0.00000000
     atom    7 type  1   force =     0.00000000    0.00000000    0.00000000
     atom    8 type  1   force =     0.00000000    0.00000000    0.00000000
     atom    9 type  2   force =     0.00000000    0.00000000    0.00000000
     atom   10 type  2   force =     0.00000000    0.00000000    0.00000000
     atom   11 type  1   force =     0.00000000    0.00000000    0.00000000
     atom   12 type  1   force =     0.00000000    0.00000000    0.00000000
     atom   13 type  1   force =     0.00000000    0.00000000    0.00000000
     atom   14 type  1   force =     0.00000000    0.00000000    0.00000000
     atom   15 type  1   force =     0.00000000    0.00000000    0.00000000
     atom   16 type  1   force =     0.00000000    0.00000000    0.00000000
     atom   17 type  2   force =     0.00000000    0.00000000    0.00000000
     atom   18 type  2   force =     0.00000000    0.00000000    0.00000000
     atom   19 type  1   force =     0.00000000    0.00000000    0.00000000
     atom   20 type  1   force =     0.00000000    0.00000000    0.00000000
     atom   21 type  2   force =     0.00000000    0.00000000    0.00000000
     atom   22 type  2   force =     0.00000000    0.00000000    0.00000000
     atom   23 type  1   force =     0.00000000    0.00000000    0.00000000
     atom   24 type  1   force =     0.00000000    0.00000000    0.00000000
     atom   25 type  1   force =     0.00000000    0.00000000    0.00000000
     atom   26 type  1   force =     0.00000000    0.00000000    0.00000000
     atom   27 type  1   force =     0.00000000    0.00000000    0.00000000
     atom   28 type  1   force =     0.00000000    0.00000000    0.00000000
     atom   29 type  2   force =     0.00000000    0.00000000    0.00000000
     atom   30 type  2   force =     0.00000000    0.00000000    0.00000000
     atom   31 type  1   force =     0.00000000    0.00000000    0.00000000
     atom   32 type  1   force =     0.00000000    0.00000000    0.00000000
     atom   33 type  2   force =     0.00000000    0.00000000    0.00000000
     atom   34 type  2   force =     0.00000000    0.00000000    0.00000000
     atom   35 type  1   force =     0.00000000    0.00000000    0.00000000
     atom   36 type  1   force =     0.00000000    0.00000000    0.00000000
     atom   37 type  1   force =     0.00000000    0.00000000    0.00000000
     atom   38 type  1   force =     0.00000000    0.00000000    0.00000000
     atom   39 type  1   force =     0.00000000    0.00000000    0.00000000
     atom   40 type  1   force =     0.00000000    0.00000000    0.00000000
     atom   41 type  3   force =     0.00000000    0.00000000    0.00000000
     atom   42 type  3   force =     0.00000000    0.00000000    0.00000000
     atom   43 type  3   force =     0.00000000    0.00000000    0.00000000
     atom   44 type  3   force =     0.00000000    0.00000000    0.00000000
     The SCF correction term to forces
     atom    1 type  1   force =    -0.00000635   -0.00000854    0.00001489
     atom    2 type  1   force =     0.00000520   -0.00000260    0.00001149
     atom    3 type  1   force =    -0.00000358    0.00000691    0.00000899
     atom    4 type  1   force =     0.00000318    0.00000258    0.00001261
     atom    5 type  2   force =    -0.00001725    0.00000732    0.00004065
     atom    6 type  2   force =     0.00001755    0.00000629    0.00003294
     atom    7 type  1   force =    -0.00000744   -0.00000335    0.00001681
     atom    8 type  1   force =     0.00000749   -0.00000142    0.00001444
     atom    9 type  2   force =    -0.00000836   -0.00000815    0.00004329
     atom   10 type  2   force =     0.00000920   -0.00000529    0.00005898
     atom   11 type  1   force =    -0.00000636    0.00000135    0.00001946
     atom   12 type  1   force =     0.00000626   -0.00000051    0.00001678
     atom   13 type  1   force =    -0.00000062    0.00000135    0.00002026
     atom   14 type  1   force =     0.00000060    0.00000097    0.00001560
     atom   15 type  1   force =    -0.00000420   -0.00000068    0.00001375
     atom   16 type  1   force =     0.00000411   -0.00000060    0.00001663
     atom   17 type  2   force =    -0.00000358    0.00000106    0.00000935
     atom   18 type  2   force =     0.00000347    0.00000095    0.00000935
     atom   19 type  1   force =    -0.00000882   -0.00000193    0.00000331
     atom   20 type  1   force =     0.00000880    0.00000192    0.00000331
     atom   21 type  2   force =    -0.00000827   -0.00000099    0.00000919
     atom   22 type  2   force =     0.00000860   -0.00000096    0.00000920
     atom   23 type  1   force =    -0.00000879    0.00000223    0.00000333
     atom   24 type  1   force =     0.00000876   -0.00000167    0.00000334
     atom   25 type  1   force =    -0.00000420   -0.00000065   -0.00001018
     atom   26 type  1   force =     0.00000411   -0.00000057   -0.00001355
     atom   27 type  1   force =    -0.00000064    0.00000131   -0.00002032
     atom   28 type  1   force =     0.00000062    0.00000094   -0.00001565
     atom   29 type  2   force =    -0.00001719    0.00000720   -0.00005191
     atom   30 type  2   force =     0.00001749    0.00000611   -0.00004425
     atom   31 type  1   force =    -0.00000741   -0.00000371   -0.00002086
     atom   32 type  1   force =     0.00000746   -0.00000179   -0.00001853
     atom   33 type  2   force =    -0.00000835   -0.00000796   -0.00005513
     atom   34 type  2   force =     0.00000921   -0.00000516   -0.00007123
     atom   35 type  1   force =    -0.00000635    0.00000175   -0.00002358
     atom   36 type  1   force =     0.00000624   -0.00000009   -0.00002088
     atom   37 type  1   force =    -0.00000359    0.00000678   -0.00001244
     atom   38 type  1   force =     0.00000319    0.00000254   -0.00001631
     atom   39 type  1   force =    -0.00000645   -0.00000855   -0.00001672
     atom   40 type  1   force =     0.00000522   -0.00000257   -0.00001325
     atom   41 type  3   force =    -0.00000092   -0.00000052    0.00000134
     atom   42 type  3   force =    -0.00000083   -0.00000048   -0.00000148
     atom   43 type  3   force =    -0.00000047   -0.00000006    0.00000217
     atom   44 type  3   force =    -0.00000047   -0.00000007   -0.00000242

     Total force =     0.009569     Total SCF correction =     0.000176

     BFGS Geometry Optimization
     Energy error            =      0.0E+00 Ry
     Gradient error          =      2.5E-03 Ry/Bohr

     number of scf cycles    =   1
     number of bfgs steps    =   0

     energy             new  =   -3432.7244033430 Ry

     new trust radius        =       0.0027166329 bohr
     new conv_thr            =       0.0000000010 Ry


ATOMIC_POSITIONS (crystal)
O            -0.0064737825        0.4755897004        0.2711241514
O             0.4951820526        0.4994708206        0.2727480750
O             0.0001395109       -0.0002126707        0.2997717515
O             0.4993634276       -0.0009339784        0.3078849957
Ru            0.2564591730        0.0009667960        0.3565493754
Ru            0.7434885185        0.0011110148        0.3563573281
O             0.2487758903        0.3113038140        0.3601604712
O             0.7517051107        0.3110027253        0.3585768077
Ru           -0.0003564680        0.5004542996        0.3583582933
Ru            0.5007284855        0.5004042474        0.3503122142
O             0.2455351610        0.6907790802        0.3573871826
O             0.7536305992        0.6898056541        0.3579106913
O            -0.0005699270        0.0001154175        0.4118610925
O             0.5005984735       -0.0010733104        0.4117098306
O             0.0023602762        0.5014749509        0.4466369066
O             0.5019776652        0.5022381719        0.4425405034
Ru            0.0006305166        0.0003891779        0.5000010000
Ru            0.5009967808        0.0011859579        0.5000010000
O             0.2506360665        0.1890831714        0.5000010000
O             0.7504520392        0.1890409403        0.5000010000
Ru            0.2564489859        0.5008940141        0.5000010000
Ru            0.7472568766        0.5010578176        0.5000010000
O             0.2510076911        0.8128956745        0.5000010000
O             0.7504420329        0.8125701829        0.5000010000
O             0.0023602762        0.5014749509        0.5533640934
O             0.5019776652        0.5022381719        0.5574604966
O            -0.0005699270        0.0001154175        0.5881399075
O             0.5005984735       -0.0010733104        0.5882911694
Ru            0.2564591730        0.0009667960        0.6434516246
Ru            0.7434885185        0.0011110148        0.6436436719
O             0.2487758903        0.3113038140        0.6398405288
O             0.7517051107        0.3110027253        0.6414241923
Ru           -0.0003564680        0.5004542996        0.6416427067
Ru            0.5007284855        0.5004042474        0.6496887858
O             0.2455351610        0.6907790802        0.6426138174
O             0.7536305992        0.6898056541        0.6420903087
O             0.0001395109       -0.0002126707        0.7002302485
O             0.4993634276       -0.0009339784        0.6921170043
O            -0.0064737825        0.4755897004        0.7288768486
O             0.4951820526        0.4994708206        0.7272529250
H             0.1223874338        0.5181938108        0.2512592607
H             0.1223874338        0.5181938108        0.7487407393
H            -0.0012320954        0.1099679878        0.2672815420
H            -0.0012320954        0.1099679878        0.7327184580



     Writing config-only to output data dir /storage/home/mgm6007/ixd4/Maria/Strain2_Files/RuO2-110-0-02/RuO2-110-0-02.save/
     NEW-OLD atomic charge density approx. for the potential

     Check: negative core charge=   -0.000001

     negative rho (up, down):  1.518E-04 0.000E+00

     add environment contribution to local potential
     Polarization accuracy = 4.5E-12, # of iterations =  46

     total cpu time spent up to now is     6521.1 secs

     per-process dynamical memory:   216.4 Mb

     Self-consistent Calculation

     iteration #  1     ecut=    50.00 Ry     beta= 0.70
     Davidson diagonalization with overlap
     ethr =  1.00E-06,  avg # of iterations =  2.5

     Threshold (ethr) on eigenvalues was too large:
     Diagonalizing with lowered threshold

     Davidson diagonalization with overlap
     ethr =  1.58E-08,  avg # of iterations =  2.5

     negative rho (up, down):  1.357E-04 0.000E+00

     add environment contribution to local potential
     Polarization accuracy = 4.4E-12, # of iterations =  45

     total cpu time spent up to now is     6671.4 secs

     total energy              =   -3432.72447381 Ry
     estimated scf accuracy    <       0.00005570 Ry
     electrostatic embedding   =      -0.04162720 Ry
     cavitation energy         =       0.02112731 Ry
     PV energy                 =      -0.08036056 Ry
     correction to one-el term =     192.71767902 Ry

     iteration #  2     ecut=    50.00 Ry     beta= 0.70
     Davidson diagonalization with overlap
     ethr =  1.53E-08,  avg # of iterations =  1.0

     negative rho (up, down):  1.351E-04 0.000E+00

     add environment contribution to local potential
     Polarization accuracy = 4.6E-12, # of iterations =  45

     total cpu time spent up to now is     6823.4 secs

     total energy              =   -3432.72447316 Ry
     estimated scf accuracy    <       0.00011880 Ry
     electrostatic embedding   =      -0.04157671 Ry
     cavitation energy         =       0.02112825 Ry
     PV energy                 =      -0.08036458 Ry
     correction to one-el term =     192.70332662 Ry

     iteration #  3     ecut=    50.00 Ry     beta= 0.70
     Davidson diagonalization with overlap
     ethr =  1.53E-08,  avg # of iterations =  1.0

     negative rho (up, down):  1.258E-04 0.000E+00

     add environment contribution to local potential
     Polarization accuracy = 4.4E-12, # of iterations =  45

     total cpu time spent up to now is     6971.8 secs

     total energy              =   -3432.72447953 Ry
     estimated scf accuracy    <       0.00000893 Ry
     electrostatic embedding   =      -0.04157506 Ry
     cavitation energy         =       0.02112896 Ry
     PV energy                 =      -0.08036367 Ry
     correction to one-el term =     192.70416252 Ry

     iteration #  4     ecut=    50.00 Ry     beta= 0.70
     Davidson diagonalization with overlap
     ethr =  2.45E-09,  avg # of iterations =  1.0

     negative rho (up, down):  1.198E-04 0.000E+00

     add environment contribution to local potential
     Polarization accuracy = 4.4E-12, # of iterations =  45

     total cpu time spent up to now is     7130.8 secs

     total energy              =   -3432.72447917 Ry
     estimated scf accuracy    <       0.00000392 Ry
     electrostatic embedding   =      -0.04155102 Ry
     cavitation energy         =       0.02112991 Ry
     PV energy                 =      -0.08036415 Ry
     correction to one-el term =     192.69689830 Ry

     iteration #  5     ecut=    50.00 Ry     beta= 0.70
     Davidson diagonalization with overlap
     ethr =  1.08E-09,  avg # of iterations =  1.0

     negative rho (up, down):  1.187E-04 0.000E+00

     add environment contribution to local potential
     Polarization accuracy = 4.4E-12, # of iterations =  45

     total cpu time spent up to now is     7291.1 secs

     total energy              =   -3432.72447915 Ry
     estimated scf accuracy    <       0.00000099 Ry
     electrostatic embedding   =      -0.04153335 Ry
     cavitation energy         =       0.02113071 Ry
     PV energy                 =      -0.08036418 Ry
     correction to one-el term =     192.69184215 Ry

     iteration #  6     ecut=    50.00 Ry     beta= 0.70
     Davidson diagonalization with overlap
     ethr =  2.71E-10,  avg # of iterations =  1.0

     negative rho (up, down):  1.193E-04 0.000E+00

     add environment contribution to local potential
     Polarization accuracy = 6.4E-12, # of iterations =  45

     total cpu time spent up to now is     7432.1 secs

     total energy              =   -3432.72447921 Ry
     estimated scf accuracy    <       0.00000048 Ry
     electrostatic embedding   =      -0.04152487 Ry
     cavitation energy         =       0.02113117 Ry
     PV energy                 =      -0.08036362 Ry
     correction to one-el term =     192.69011706 Ry

     iteration #  7     ecut=    50.00 Ry     beta= 0.70
     Davidson diagonalization with overlap
     ethr =  1.31E-10,  avg # of iterations =  1.0

     negative rho (up, down):  1.223E-04 0.000E+00

     add environment contribution to local potential
     Polarization accuracy = 9.0E-12, # of iterations =  45

     total cpu time spent up to now is     7575.7 secs

     total energy              =   -3432.72447927 Ry
     estimated scf accuracy    <       0.00000021 Ry
     electrostatic embedding   =      -0.04152081 Ry
     cavitation energy         =       0.02113138 Ry
     PV energy                 =      -0.08036321 Ry
     correction to one-el term =     192.68965330 Ry

     iteration #  8     ecut=    50.00 Ry     beta= 0.70
     Davidson diagonalization with overlap
     ethr =  5.65E-11,  avg # of iterations =  1.0

     negative rho (up, down):  1.265E-04 0.000E+00

     add environment contribution to local potential
     Polarization accuracy = 4.4E-12, # of iterations =  45

     total cpu time spent up to now is     7715.8 secs

     total energy              =   -3432.72447941 Ry
     estimated scf accuracy    <       0.00000005 Ry
     electrostatic embedding   =      -0.04151401 Ry
     cavitation energy         =       0.02113167 Ry
     PV energy                 =      -0.08036246 Ry
     correction to one-el term =     192.68944419 Ry

     iteration #  9     ecut=    50.00 Ry     beta= 0.70
     Davidson diagonalization with overlap
     ethr =  1.48E-11,  avg # of iterations =  2.0

     negative rho (up, down):  1.324E-04 0.000E+00

     add environment contribution to local potential
     Polarization accuracy = 4.7E-12, # of iterations =  45

     total cpu time spent up to now is     7853.9 secs

     total energy              =   -3432.72447951 Ry
     estimated scf accuracy    <       0.00000003 Ry
     electrostatic embedding   =      -0.04150930 Ry
     cavitation energy         =       0.02113178 Ry
     PV energy                 =      -0.08036203 Ry
     correction to one-el term =     192.68979657 Ry

     iteration # 10     ecut=    50.00 Ry     beta= 0.70
     Davidson diagonalization with overlap
     ethr =  7.27E-12,  avg # of iterations =  2.0

     negative rho (up, down):  1.382E-04 0.000E+00

     add environment contribution to local potential
     Polarization accuracy = 9.8E-12, # of iterations =  45

     total cpu time spent up to now is     8004.0 secs

     total energy              =   -3432.72447962 Ry
     estimated scf accuracy    <          6.5E-09 Ry
     electrostatic embedding   =      -0.04150531 Ry
     cavitation energy         =       0.02113181 Ry
     PV energy                 =      -0.08036167 Ry
     correction to one-el term =     192.69060681 Ry

     iteration # 11     ecut=    50.00 Ry     beta= 0.70
     Davidson diagonalization with overlap
     ethr =  1.78E-12,  avg # of iterations =  5.5

     negative rho (up, down):  1.438E-04 0.000E+00

     add environment contribution to local potential
     Polarization accuracy = 4.2E-12, # of iterations =  46

     total cpu time spent up to now is     8162.2 secs

     total energy              =   -3432.72447970 Ry
     estimated scf accuracy    <          2.5E-09 Ry
     electrostatic embedding   =      -0.04150408 Ry
     cavitation energy         =       0.02113174 Ry
     PV energy                 =      -0.08036153 Ry
     correction to one-el term =     192.69165977 Ry

     iteration # 12     ecut=    50.00 Ry     beta= 0.70
     Davidson diagonalization with overlap
     ethr =  6.92E-13,  avg # of iterations =  2.0

     negative rho (up, down):  1.476E-04 0.000E+00

     add environment contribution to local potential
     Polarization accuracy = 4.9E-12, # of iterations =  45

     total cpu time spent up to now is     8305.9 secs

     total energy              =   -3432.72447976 Ry
     estimated scf accuracy    <          1.3E-09 Ry
     electrostatic embedding   =      -0.04150323 Ry
     cavitation energy         =       0.02113166 Ry
     PV energy                 =      -0.08036145 Ry
     correction to one-el term =     192.69258976 Ry

     iteration # 13     ecut=    50.00 Ry     beta= 0.70
     Davidson diagonalization with overlap
     ethr =  3.71E-13,  avg # of iterations =  1.5

     negative rho (up, down):  1.516E-04 0.000E+00

     the potential shift due to the Gaussian-smeared nuclei is    -1.3223 ev

     total cpu time spent up to now is     8468.5 secs

     End of self-consistent calculation

          k = 0.2500 0.2666 0.0000 ( 35123 PWs)   bands (ev):

[...]
     atom    5 type  2   force =     0.00000000    0.00000000    0.00000000
     atom    6 type  2   force =     0.00000000    0.00000000    0.00000000
     atom    7 type  1   force =     0.00000000    0.00000000    0.00000000
     atom    8 type  1   force =     0.00000000    0.00000000    0.00000000
     atom    9 type  2   force =     0.00000000    0.00000000    0.00000000
     atom   10 type  2   force =     0.00000000    0.00000000    0.00000000
     atom   11 type  1   force =     0.00000000    0.00000000    0.00000000
     atom   12 type  1   force =     0.00000000    0.00000000    0.00000000
     atom   13 type  1   force =     0.00000000    0.00000000    0.00000000
     atom   14 type  1   force =     0.00000000    0.00000000    0.00000000
     atom   15 type  1   force =     0.00000000    0.00000000    0.00000000
     atom   16 type  1   force =     0.00000000    0.00000000    0.00000000
     atom   17 type  2   force =     0.00000000    0.00000000    0.00000000
     atom   18 type  2   force =     0.00000000    0.00000000    0.00000000
     atom   19 type  1   force =     0.00000000    0.00000000    0.00000000
     atom   20 type  1   force =     0.00000000    0.00000000    0.00000000
     atom   21 type  2   force =     0.00000000    0.00000000    0.00000000
     atom   22 type  2   force =     0.00000000    0.00000000    0.00000000
     atom   23 type  1   force =     0.00000000    0.00000000    0.00000000
     atom   24 type  1   force =     0.00000000    0.00000000    0.00000000
     atom   25 type  1   force =     0.00000000    0.00000000    0.00000000
     atom   26 type  1   force =     0.00000000    0.00000000    0.00000000
     atom   27 type  1   force =     0.00000000    0.00000000    0.00000000
     atom   28 type  1   force =     0.00000000    0.00000000    0.00000000
     atom   29 type  2   force =     0.00000000    0.00000000    0.00000000
     atom   30 type  2   force =     0.00000000    0.00000000    0.00000000
     atom   31 type  1   force =     0.00000000    0.00000000    0.00000000
     atom   32 type  1   force =     0.00000000    0.00000000    0.00000000
     atom   33 type  2   force =     0.00000000    0.00000000    0.00000000
     atom   34 type  2   force =     0.00000000    0.00000000    0.00000000
     atom   35 type  1   force =     0.00000000    0.00000000    0.00000000
     atom   36 type  1   force =     0.00000000    0.00000000    0.00000000
     atom   37 type  1   force =     0.00000000    0.00000000    0.00000000
     atom   38 type  1   force =     0.00000000    0.00000000    0.00000000
     atom   39 type  1   force =     0.00000000    0.00000000    0.00000000
     atom   40 type  1   force =     0.00000000    0.00000000    0.00000000
     atom   41 type  3   force =     0.00000000    0.00000000    0.00000000
     atom   42 type  3   force =     0.00000000    0.00000000    0.00000000
     atom   43 type  3   force =     0.00000000    0.00000000    0.00000000
     atom   44 type  3   force =     0.00000000    0.00000000    0.00000000
     The SCF correction term to forces
     atom    1 type  1   force =     0.00000074    0.00000037    0.00000121
     atom    2 type  1   force =    -0.00000062    0.00000011    0.00000139
     atom    3 type  1   force =     0.00000054   -0.00000034    0.00000140
     atom    4 type  1   force =    -0.00000055   -0.00000013    0.00000141
     atom    5 type  2   force =    -0.00000033   -0.00000005    0.00000459
     atom    6 type  2   force =     0.00000020   -0.00000040    0.00000523
     atom    7 type  1   force =    -0.00000001    0.00000083    0.00000131
     atom    8 type  1   force =    -0.00000001    0.00000122    0.00000198
     atom    9 type  2   force =     0.00000064    0.00000030    0.00000335
     atom   10 type  2   force =    -0.00000078    0.00000003    0.00000380
     atom   11 type  1   force =    -0.00000015   -0.00000087    0.00000126
     atom   12 type  1   force =     0.00000022   -0.00000112    0.00000154
     atom   13 type  1   force =     0.00000021   -0.00000005    0.00000210
     atom   14 type  1   force =    -0.00000022    0.00000002    0.00000269
     atom   15 type  1   force =    -0.00000104    0.00000005    0.00000088
     atom   16 type  1   force =     0.00000093   -0.00000005    0.00000124
     atom   17 type  2   force =    -0.00000072   -0.00000005    0.00000011
     atom   18 type  2   force =     0.00000071    0.00000017    0.00000011
     atom   19 type  1   force =     0.00000052   -0.00000056    0.00000004
     atom   20 type  1   force =    -0.00000053    0.00000067    0.00000004
     atom   21 type  2   force =     0.00000085   -0.00000032    0.00000011
     atom   22 type  2   force =    -0.00000061   -0.00000018    0.00000011
     atom   23 type  1   force =     0.00000041    0.00000085    0.00000004
     atom   24 type  1   force =    -0.00000044   -0.00000044    0.00000004
     atom   25 type  1   force =    -0.00000104    0.00000005   -0.00000081
     atom   26 type  1   force =     0.00000093   -0.00000005   -0.00000117
     atom   27 type  1   force =     0.00000021   -0.00000005   -0.00000204
     atom   28 type  1   force =    -0.00000022    0.00000002   -0.00000263
     atom   29 type  2   force =    -0.00000034   -0.00000004   -0.00000453
     atom   30 type  2   force =     0.00000021   -0.00000040   -0.00000517
     atom   31 type  1   force =    -0.00000001    0.00000083   -0.00000129
     atom   32 type  1   force =    -0.00000000    0.00000122   -0.00000195
     atom   33 type  2   force =     0.00000064    0.00000030   -0.00000328
     atom   34 type  2   force =    -0.00000078    0.00000003   -0.00000375
     atom   35 type  1   force =    -0.00000016   -0.00000087   -0.00000123
     atom   36 type  1   force =     0.00000022   -0.00000112   -0.00000152
     atom   37 type  1   force =     0.00000054   -0.00000034   -0.00000141
     atom   38 type  1   force =    -0.00000055   -0.00000013   -0.00000142
     atom   39 type  1   force =     0.00000074    0.00000037   -0.00000123
     atom   40 type  1   force =    -0.00000062    0.00000011   -0.00000141
     atom   41 type  3   force =     0.00000000   -0.00000003    0.00000023
     atom   42 type  3   force =     0.00000000   -0.00000003   -0.00000024
     atom   43 type  3   force =     0.00000008    0.00000015    0.00000014
     atom   44 type  3   force =     0.00000008    0.00000015   -0.00000015

     Total force =     0.001811     Total SCF correction =     0.000015
     Energy error            =      7.1E-06 Ry
     Gradient error          =      4.0E-04 Ry/Bohr

     number of scf cycles    =  46
     number of bfgs steps    =  45

     energy             old  =   -3432.7269412968 Ry
     energy             new  =   -3432.7269484168 Ry

     CASE: energy            _new < energy            _old

     new trust radius        =       0.0061444323 bohr
     new conv_thr            =            1.0E-11 Ry


ATOMIC_POSITIONS (crystal)
O            -0.0059221880        0.4479221085        0.2710301596
O             0.4985922882        0.4941559507        0.2726338499
O             0.0004404107        0.0089538617        0.2990668093
O             0.5003550811       -0.0017047148        0.3083895725
Ru            0.2563433682       -0.0012045668        0.3563788812
Ru            0.7445671605       -0.0009056005        0.3563053738
O             0.2511939090        0.3097482308        0.3616341312
O             0.7500903272        0.3090313556        0.3599944885
Ru           -0.0011715532        0.4977786593        0.3583242277
Ru            0.4999361541        0.4977144899        0.3500337264
O             0.2430681207        0.6886000085        0.3549935242
O             0.7565986566        0.6877145326        0.3561377412
O             0.0002480617       -0.0014030645        0.4117401535
O             0.5004794509       -0.0055166993        0.4120409476
O             0.0047280953        0.5032154520        0.4466896128
O             0.5037731836        0.5059309777        0.4427707126
Ru            0.0008195826        0.0021504801        0.5000010000
Ru            0.5010103398        0.0022476658        0.5000010000
O             0.2510483716        0.1909325907        0.5000010000
O             0.7497309104        0.1908493746        0.5000010000
Ru            0.2574056653        0.5029118216        0.5000010000
Ru            0.7491721771        0.5031267123        0.5000010000
O             0.2503641459        0.8146879751        0.5000010000
O             0.7508883325        0.8144415859        0.5000010000
O             0.0047280953        0.5032154520        0.5533113872
O             0.5037731836        0.5059309777        0.5572302874
O             0.0002480617       -0.0014030645        0.5882608465
O             0.5004794509       -0.0055166993        0.5879600524
Ru            0.2563433682       -0.0012045668        0.6436221188
Ru            0.7445671605       -0.0009056005        0.6436956262
O             0.2511939090        0.3097482308        0.6383668688
O             0.7500903272        0.3090313556        0.6400065115
Ru           -0.0011715532        0.4977786593        0.6416767723
Ru            0.4999361541        0.4977144899        0.6499672736
O             0.2430681207        0.6886000085        0.6450074758
O             0.7565986566        0.6877145326        0.6438632588
O             0.0004404107        0.0089538617        0.7009351907
O             0.5003550811       -0.0017047148        0.6916124275
O            -0.0059221880        0.4479221085        0.7289708404
O             0.4985922882        0.4941559507        0.7273671501
H             0.1090788929        0.5146731335        0.2490137170
H             0.1090788929        0.5146731335        0.7509862830
H             0.0000158179        0.1488387825        0.2752868887
H             0.0000158179        0.1488387825        0.7247131113



     Writing config-only to output data dir /storage/home/mgm6007/ixd4/Maria/Strain2_Files/RuO2-110-0-02/RuO2-110-0-02.save/
     NEW-OLD atomic charge density approx. for the potential

     Check: negative core charge=   -0.000001

     negative rho (up, down):  1.596E-04 0.000E+00

     add environment contribution to local potential
     Polarization accuracy = 5.0E-12, # of iterations =  47

     total cpu time spent up to now is   200498.9 secs

     per-process dynamical memory:   240.7 Mb

     Self-consistent Calculation

     iteration #  1     ecut=    50.00 Ry     beta= 0.70
     Davidson diagonalization with overlap
     ethr =  1.00E-06,  avg # of iterations =  3.0

     Threshold (ethr) on eigenvalues was too large:
     Diagonalizing with lowered threshold

     Davidson diagonalization with overlap
     ethr =  2.56E-09,  avg # of iterations =  4.0

     negative rho (up, down):  1.642E-04 0.000E+00

     add environment contribution to local potential
     Polarization accuracy = 5.1E-12, # of iterations =  45

     total cpu time spent up to now is   201021.3 secs

     total energy              =   -3432.72695468 Ry
     estimated scf accuracy    <       0.00001083 Ry
     electrostatic embedding   =      -0.03297096 Ry
     cavitation energy         =       0.02120287 Ry
     PV energy                 =      -0.08020177 Ry
     correction to one-el term =     194.67968853 Ry

     iteration #  2     ecut=    50.00 Ry     beta= 0.70
     Davidson diagonalization with overlap
     ethr =  2.97E-09,  avg # of iterations =  2.0

     negative rho (up, down):  1.641E-04 0.000E+00

     add environment contribution to local potential
     Polarization accuracy = 4.8E-12, # of iterations =  45

     total cpu time spent up to now is   201550.5 secs

     total energy              =   -3432.72695515 Ry
     estimated scf accuracy    <       0.00001153 Ry
     electrostatic embedding   =      -0.03290145 Ry
     cavitation energy         =       0.02120088 Ry
     PV energy                 =      -0.08020583 Ry
     correction to one-el term =     194.69804704 Ry

     iteration #  3     ecut=    50.00 Ry     beta= 0.70
     Davidson diagonalization with overlap
     ethr =  2.97E-09,  avg # of iterations =  1.0

     negative rho (up, down):  1.645E-04 0.000E+00

     add environment contribution to local potential
     Polarization accuracy = 4.6E-12, # of iterations =  45

     total cpu time spent up to now is   201948.8 secs

     total energy              =   -3432.72695563 Ry
     estimated scf accuracy    <       0.00000326 Ry
     electrostatic embedding   =      -0.03288304 Ry
     cavitation energy         =       0.02120016 Ry
     PV energy                 =      -0.08020704 Ry
     correction to one-el term =     194.70182080 Ry

     iteration #  4     ecut=    50.00 Ry     beta= 0.70
     Davidson diagonalization with overlap
     ethr =  8.95E-10,  avg # of iterations =  2.0

     negative rho (up, down):  1.639E-04 0.000E+00

     add environment contribution to local potential
     Polarization accuracy = 5.3E-12, # of iterations =  45

     total cpu time spent up to now is   202428.2 secs

     total energy              =   -3432.72695586 Ry
     estimated scf accuracy    <       0.00000101 Ry
     electrostatic embedding   =      -0.03284198 Ry
     cavitation energy         =       0.02119895 Ry
     PV energy                 =      -0.08020926 Ry
     correction to one-el term =     194.71179918 Ry

     iteration #  5     ecut=    50.00 Ry     beta= 0.70
     Davidson diagonalization with overlap
     ethr =  2.78E-10,  avg # of iterations =  2.0

     negative rho (up, down):  1.629E-04 0.000E+00

     add environment contribution to local potential
     Polarization accuracy = 4.6E-12, # of iterations =  45

     total cpu time spent up to now is   203043.7 secs

     total energy              =   -3432.72695592 Ry
     estimated scf accuracy    <       0.00000022 Ry
     electrostatic embedding   =      -0.03283214 Ry
     cavitation energy         =       0.02119866 Ry
     PV energy                 =      -0.08020965 Ry
     correction to one-el term =     194.71427987 Ry

     iteration #  6     ecut=    50.00 Ry     beta= 0.70
     Davidson diagonalization with overlap
     ethr =  6.07E-11,  avg # of iterations =  2.0

     negative rho (up, down):  1.611E-04 0.000E+00

     add environment contribution to local potential
     Polarization accuracy = 4.2E-12, # of iterations =  46

     total cpu time spent up to now is   203531.0 secs

     total energy              =   -3432.72695593 Ry
     estimated scf accuracy    <       0.00000002 Ry
     electrostatic embedding   =      -0.03282583 Ry
     cavitation energy         =       0.02119844 Ry
     PV energy                 =      -0.08020980 Ry
     correction to one-el term =     194.71561015 Ry

     iteration #  7     ecut=    50.00 Ry     beta= 0.70
     Davidson diagonalization with overlap
     ethr =  6.56E-12,  avg # of iterations =  5.0

     negative rho (up, down):  1.605E-04 0.000E+00

     add environment contribution to local potential
     Polarization accuracy = 4.5E-12, # of iterations =  45

     total cpu time spent up to now is   204049.4 secs

     total energy              =   -3432.72695590 Ry
     estimated scf accuracy    <       0.00000002 Ry
     electrostatic embedding   =      -0.03281584 Ry
     cavitation energy         =       0.02119814 Ry
     PV energy                 =      -0.08020992 Ry
     correction to one-el term =     194.71765725 Ry

     iteration #  8     ecut=    50.00 Ry     beta= 0.70
     Davidson diagonalization with overlap
     ethr =  4.60E-12,  avg # of iterations =  2.0

     negative rho (up, down):  1.598E-04 0.000E+00

     add environment contribution to local potential
     Polarization accuracy = 4.2E-12, # of iterations =  46

     total cpu time spent up to now is   204558.4 secs

     total energy              =   -3432.72695590 Ry
     estimated scf accuracy    <          3.1E-09 Ry
     electrostatic embedding   =      -0.03281138 Ry
     cavitation energy         =       0.02119801 Ry
     PV energy                 =      -0.08020999 Ry
     correction to one-el term =     194.71855656 Ry

     iteration #  9     ecut=    50.00 Ry     beta= 0.70
     Davidson diagonalization with overlap
     ethr =  8.61E-13,  avg # of iterations =  2.0

     negative rho (up, down):  1.596E-04 0.000E+00

     add environment contribution to local potential
     Polarization accuracy = 4.1E-12, # of iterations =  46

     total cpu time spent up to now is   204974.9 secs

     total energy              =   -3432.72695589 Ry
     estimated scf accuracy    <          1.5E-09 Ry
     electrostatic embedding   =      -0.03280579 Ry
     cavitation energy         =       0.02119786 Ry
     PV energy                 =      -0.08021008 Ry
     correction to one-el term =     194.71969046 Ry

     iteration # 10     ecut=    50.00 Ry     beta= 0.70
     Davidson diagonalization with overlap
     ethr =  4.15E-13,  avg # of iterations =  2.0

     negative rho (up, down):  1.595E-04 0.000E+00

     add environment contribution to local potential
     Polarization accuracy = 4.4E-12, # of iterations =  45

     total cpu time spent up to now is   205565.5 secs

     total energy              =   -3432.72695589 Ry
     estimated scf accuracy    <          7.8E-10 Ry
     electrostatic embedding   =      -0.03280380 Ry
     cavitation energy         =       0.02119782 Ry
     PV energy                 =      -0.08021010 Ry
     correction to one-el term =     194.72006674 Ry

     iteration # 11     ecut=    50.00 Ry     beta= 0.70
     Davidson diagonalization with overlap
     ethr =  2.14E-13,  avg # of iterations =  2.0

     negative rho (up, down):  1.595E-04 0.000E+00

     add environment contribution to local potential
     Polarization accuracy = 4.1E-12, # of iterations =  46

     total cpu time spent up to now is   206042.2 secs

     total energy              =   -3432.72695588 Ry
     estimated scf accuracy    <          2.5E-10 Ry
     electrostatic embedding   =      -0.03280202 Ry
     cavitation energy         =       0.02119778 Ry
     PV energy                 =      -0.08021011 Ry
     correction to one-el term =     194.72036438 Ry

     iteration # 12     ecut=    50.00 Ry     beta= 0.70
     Davidson diagonalization with overlap
     ethr =  1.00E-13,  avg # of iterations =  2.0

     negative rho (up, down):  1.595E-04 0.000E+00

     add environment contribution to local potential
     Polarization accuracy = 6.5E-12, # of iterations =  45

     total cpu time spent up to now is   206587.4 secs

     total energy              =   -3432.72695588 Ry
     estimated scf accuracy    <          8.7E-11 Ry
     electrostatic embedding   =      -0.03280147 Ry
     cavitation energy         =       0.02119778 Ry
     PV energy                 =      -0.08021012 Ry
     correction to one-el term =     194.72044656 Ry

     iteration # 13     ecut=    50.00 Ry     beta= 0.70
     Davidson diagonalization with overlap
     ethr =  1.00E-13,  avg # of iterations =  2.0

     negative rho (up, down):  1.596E-04 0.000E+00

     add environment contribution to local potential
     Polarization accuracy = 5.5E-12, # of iterations =  45

     total cpu time spent up to now is   207096.0 secs

     total energy              =   -3432.72695588 Ry
     estimated scf accuracy    <          1.4E-10 Ry
     electrostatic embedding   =      -0.03280077 Ry
     cavitation energy         =       0.02119777 Ry
     PV energy                 =      -0.08021013 Ry
     correction to one-el term =     194.72053756 Ry

     iteration # 14     ecut=    50.00 Ry     beta= 0.70
     Davidson diagonalization with overlap
     ethr =  1.00E-13,  avg # of iterations =  1.0

     negative rho (up, down):  1.596E-04 0.000E+00

     add environment contribution to local potential
     Polarization accuracy = 4.0E-12, # of iterations =  46
