
     Program PWSCF v.7.2 starts on 26Jul2023 at 11:18:59 
        Git branch: heads/qe-7.2
        Last git commit: b4c5e8deeb7d1863e7553a87b45f8d22c21926a5
        Last git commit date: Mon Mar 27 16:12:09 2023 +0000
        Last git commit subject: Merge branch 'merge_fix_hubbard' into 'develop'

     This program is part of the open-source Quantum ESPRESSO suite
     for quantum simulation of materials; please cite
         "P. Giannozzi et al., J. Phys.:Condens. Matter 21 395502 (2009);
         "P. Giannozzi et al., J. Phys.:Condens. Matter 29 465901 (2017);
         "P. Giannozzi et al., J. Chem. Phys. 152 154105 (2020);
          URL http://www.quantum-espresso.org", 
     in publications or presentations arising from this work. More details at
     http://www.quantum-espresso.org/quote

     Parallel version (MPI), running on    20 processors

     MPI processes distributed on     1 nodes
     96034 MiB available memory on the printing compute node when the environment starts
 
     Reading input from RuO2-110-0-024.in

     Current dimensions of program PWSCF are:
     Max number of different atomic species (ntypx) = 10
     Max number of k-points (npk) =  40000
     Max angular momentum in pseudopotentials (lmaxx) =  4
 
     Reading input from environ.in:
     * Environ restarting
     * setting up water environment
     * using electronic solvent mode
     * setting boundary derivatives method to SCCS default
     
     file O.pbe-n-kjpaw_psl.0.1.UPF: wavefunction(s)  2P renormalized
     Message from routine setup:
     using ibrav=0 with symmetry is DISCOURAGED, use correct ibrav instead
 
     R & G space division:  proc/nbgrp/npool/nimage =      20
     Subspace diagonalization in iterative solution of the eigenvalue problem:
     one sub-group per band group will be used
     scalapack distributed-memory algorithm (size of sub-group:  2*  2 procs)

 
     Parallelization info
     --------------------
     sticks:   dense  smooth     PW     G-vecs:    dense   smooth      PW
     Min         276     110     29                54982    13912    1877
     Max         277     111     30                54993    13923    1888
     Sum        5537    2217    585              1099789   278381   37601
 
     Using Slab Decomposition
 


     bravais-lattice index     =            0
     lattice parameter (alat)  =      12.3824  a.u.
     unit-cell volume          =    5825.9133 (a.u.)^3
     number of atoms/cell      =           46
     number of atomic types    =            3
     number of electrons       =       366.00
     number of Kohn-Sham states=          220
     kinetic-energy cutoff     =      50.0000  Ry
     charge density cutoff     =     500.0000  Ry
     scf convergence threshold =      1.0E-09
     mixing beta               =       0.7000
     number of iterations used =            8  local-TF  mixing
     energy convergence thresh.=      1.0E-04
     force convergence thresh. =      1.0E-04
     Exchange-correlation= PBE
                           (   1   4   3   4   0   0   0)
     nstep                     =          200


     ================================================================================
 
                                  Environ Setup Summary

     ================================================================================
 
     Please cite

          O. Andreussi, I. Dabo and N. Marzari, J. Chem. Phys. 136, 064102 (2012)

     in publications or presentations arising from this work.

     ================================================================================
 
     Parameters
     ==========

     compensation onset threshold      =               0.1000E+00
     static permittivity               =                    78.30
     surface tension in input (dyn/cm) =                    47.90
     surface tension in internal units =               0.6153E-04
     external pressure in input (GPa)  =                    -0.36
     external pressure in inter. units =              -0.2447E-04

     Solvent Boundary
     ================

     solvent mode                      =               electronic
     derivatives method                =                    chain
     numerical core for derivatives    =                      fft
     switching function adopted        =                     SCCS
     density limit for vacuum region   =               0.5000E-02
     density limit for bulk solvent    =               0.1000E-03

     Electrostatic Setup
     ===================

     electrostatic problem to solve    =              generalized
     numerical solver adopted          =                       cg
     type of auxiliary density adopted =                     none
     numerical core for poisson        =                      fft
     type of pbc corrections           =                parabolic
     numerical core for corrections    =                      1da

     ================================================================================
 

     celldm(1)=  12.382447  celldm(2)=   0.000000  celldm(3)=   0.000000
     celldm(4)=   0.000000  celldm(5)=   0.000000  celldm(6)=   0.000000

     crystal axes: (cart. coord. in units of alat)
               a(1) = (   1.000000   0.000000   0.000000 )  
               a(2) = (   0.000000   0.908473   0.000000 )  
               a(3) = (   0.000000   0.000000   3.377790 )  

     reciprocal axes: (cart. coord. in units 2 pi/alat)
               b(1) = (  1.000000  0.000000  0.000000 )  
               b(2) = (  0.000000  1.100748  0.000000 )  
               b(3) = (  0.000000  0.000000  0.296052 )  


     PseudoPot. # 1 for O  read from file:
     /gpfs/group/ixd4/default/Simon/pseudopotentials/materialscloud/SSSP_1.3.0_PBE_efficiency/O.pbe-n-kjpaw_psl.0.1.UPF
     MD5 check sum: 0234752ac141de4415c5fc33072bef88
     Pseudo is Projector augmented-wave + core cor, Zval =  6.0
     Generated using "atomic" code by A. Dal Corso  v.5.0.99 svn rev. 10869
     Shape of augmentation charge: BESSEL
     Using radial grid of 1095 points,  4 beta functions with: 
                l(1) =   0
                l(2) =   0
                l(3) =   1
                l(4) =   1
     Q(r) pseudized with 0 coefficients 


     PseudoPot. # 2 for Ru read from file:
     /gpfs/group/ixd4/default/Simon/pseudopotentials/materialscloud/SSSP_1.3.0_PBE_efficiency/Ru_ONCV_PBE-1.0.oncvpsp.upf
     MD5 check sum: be037bb81c227cfb9b1461a9f099f4bd
     Pseudo is Norm-conserving, Zval = 16.0
     Generated using ONCVPSP code by D. R. Hamann
     Using radial grid of 1458 points,  6 beta functions with: 
                l(1) =   0
                l(2) =   0
                l(3) =   1
                l(4) =   1
                l(5) =   2
                l(6) =   2

     PseudoPot. # 3 for H  read from file:
     /gpfs/group/ixd4/default/Simon/pseudopotentials/materialscloud/SSSP_1.3.0_PBE_efficiency/H.pbe-rrkjus_psl.1.0.0.UPF
     MD5 check sum: f52b6d4d1c606e5624b1dc7b2218f220
     Pseudo is Ultrasoft, Zval =  1.0
     Generated using "atomic" code by A. Dal Corso  v.5.1
     Using radial grid of  929 points,  2 beta functions with: 
                l(1) =   0
                l(2) =   0
     Q(r) pseudized with 0 coefficients 


     atomic species   valence    mass     pseudopotential
        O              6.00    15.99940     O ( 1.00)
        Ru            16.00   101.07000     Ru( 1.00)
        H              1.00     1.00794     H ( 1.00)

      4 Sym. Ops. (no inversion) found



   Cartesian axes

     site n.     atom                  positions (alat units)
         1           O   tau(   1) = (   0.0137326   0.4542364   0.9127480  )
         2           O   tau(   2) = (   0.4776861   0.4542364   0.9183959  )
         3           O   tau(   3) = (  -0.0020597   0.0000000   0.9769057  )
         4           O   tau(   4) = (   0.4969173   0.0000000   1.0402075  )
         5           Ru  tau(   5) = (   0.2564272   0.0000000   1.2095807  )
         6           Ru  tau(   6) = (   0.7399595   0.0000000   1.2068393  )
         7           O   tau(   7) = (   0.2456872   0.2761301   1.2111645  )
         8           O   tau(   8) = (   0.7510967   0.2792459   1.2024008  )
         9           Ru  tau(   9) = (  -0.0003166   0.4542364   1.2128358  )
        10           Ru  tau(  10) = (   0.5000176   0.4542364   1.1824434  )
        11           O   tau(  11) = (   0.2456872   0.6323427   1.2111645  )
        12           O   tau(  12) = (   0.7510967   0.6292270   1.2024008  )
        13           O   tau(  13) = (  -0.0047818   0.0000000   1.3907550  )
        14           O   tau(  14) = (   0.4991664   0.0000000   1.3932793  )
        15           O   tau(  15) = (  -0.0005084   0.4542364   1.5078499  )
        16           O   tau(  16) = (   0.4978758   0.4542364   1.4882622  )
        17           Ru  tau(  17) = (  -0.0041413   0.0000000   1.6888985  )
        18           Ru  tau(  18) = (   0.5004176   0.0000000   1.6888985  )
        19           O   tau(  19) = (   0.2480217   0.1736443   1.6888985  )
        20           O   tau(  20) = (   0.7476853   0.1785495   1.6888985  )
        21           Ru  tau(  21) = (   0.2561116   0.4542364   1.6888985  )
        22           Ru  tau(  22) = (   0.7418425   0.4542364   1.6888985  )
        23           O   tau(  23) = (   0.2480217   0.7348294   1.6888985  )
        24           O   tau(  24) = (   0.7476853   0.7299242   1.6888985  )
        25           O   tau(  25) = (  -0.0005084   0.4542364   1.8699438  )
        26           O   tau(  26) = (   0.4978758   0.4542364   1.8895315  )
        27           O   tau(  27) = (  -0.0047818   0.0000000   1.9870387  )
        28           O   tau(  28) = (   0.4991664   0.0000000   1.9845144  )
        29           Ru  tau(  29) = (   0.2564272   0.0000000   2.1682130  )
        30           Ru  tau(  30) = (   0.7399595   0.0000000   2.1709544  )
        31           O   tau(  31) = (   0.2456872   0.2761301   2.1666292  )
        32           O   tau(  32) = (   0.7510967   0.2792459   2.1753929  )
        33           Ru  tau(  33) = (  -0.0003166   0.4542364   2.1649579  )
        34           Ru  tau(  34) = (   0.5000176   0.4542364   2.1953503  )
        35           O   tau(  35) = (   0.2456872   0.6323427   2.1666292  )
        36           O   tau(  36) = (   0.7510967   0.6292270   2.1753929  )
        37           O   tau(  37) = (  -0.0020597   0.0000000   2.4008914  )
        38           O   tau(  38) = (   0.4969173   0.0000000   2.3375896  )
        39           O   tau(  39) = (   0.0137326   0.4542364   2.4650457  )
        40           O   tau(  40) = (   0.4776861   0.4542364   2.4593978  )
        41           H   tau(  41) = (   0.1630990   0.4542364   0.8747349  )
        42           H   tau(  42) = (   0.1630990   0.4542364   2.5030554  )
        43           H   tau(  43) = (  -0.0029851   0.1090966   0.8865530  )
        44           H   tau(  44) = (  -0.0029851   0.1090966   2.4912373  )
        45           H   tau(  45) = (  -0.0029851   0.7993762   0.8865530  )
        46           H   tau(  46) = (  -0.0029851   0.7993762   2.4912373  )

     number of k points=     1  Marzari-Vanderbilt smearing, width (Ry)=  0.0300
                       cart. coord. in units 2pi/alat
        k(    1) = (   0.2500000   0.2751871   0.0000000), wk =   2.0000000

     Dense  grid:  1099789 G-vectors     FFT dimensions: (  90,  81, 300)

     Smooth grid:   278381 G-vectors     FFT dimensions: (  60,  54, 192)

     Estimated max dynamical RAM per process >     168.67 MB

     Estimated total dynamical RAM >       3.29 GB

     Check: negative core charge=   -0.000001

     Initial potential from superposition of free atoms

     starting charge     365.9933, renormalised to     366.0000

     add environment contribution to local potential
     Polarization accuracy = 3.0E-12, # of iterations =  24

     negative rho (up, down):  3.245E-05 0.000E+00
     Starting wfcs are  238 randomized atomic wfcs
     Checking if some PAW data can be deallocated... 

     total cpu time spent up to now is     1095.8 secs

     per-process dynamical memory:   138.3 Mb

     Self-consistent Calculation

     iteration #  1     ecut=    50.00 Ry     beta= 0.70
     Davidson diagonalization with overlap
     ethr =  1.00E-02,  avg # of iterations =  2.0

     total cpu time spent up to now is     1372.6 secs

     total energy              =   -3432.62274815 Ry
     estimated scf accuracy    <       9.73545153 Ry
     electrostatic embedding   =      -0.00169451 Ry
     cavitation energy         =       0.01938009 Ry
     PV energy                 =      -0.08412188 Ry
     correction to one-el term =     220.90345572 Ry

     iteration #  2     ecut=    50.00 Ry     beta= 0.70
     Davidson diagonalization with overlap
     ethr =  2.66E-03,  avg # of iterations =  2.0

     total cpu time spent up to now is     1656.1 secs

     total energy              =   -3434.70746215 Ry
     estimated scf accuracy    <       2.41509450 Ry
     electrostatic embedding   =      -0.00263590 Ry
     cavitation energy         =       0.01951592 Ry
     PV energy                 =      -0.08463787 Ry
     correction to one-el term =     220.90599480 Ry

     iteration #  3     ecut=    50.00 Ry     beta= 0.70
     Davidson diagonalization with overlap
     ethr =  6.60E-04,  avg # of iterations =  1.0

     total cpu time spent up to now is     1960.0 secs

     total energy              =   -3434.91644861 Ry
     estimated scf accuracy    <       0.48017465 Ry
     electrostatic embedding   =      -0.00307114 Ry
     cavitation energy         =       0.01958410 Ry
     PV energy                 =      -0.08487751 Ry
     correction to one-el term =     220.90714530 Ry

     iteration #  4     ecut=    50.00 Ry     beta= 0.70
     Davidson diagonalization with overlap
     ethr =  1.31E-04,  avg # of iterations =  2.0

     total cpu time spent up to now is     2256.7 secs

     total energy              =   -3434.95313163 Ry
     estimated scf accuracy    <       0.55995519 Ry
     electrostatic embedding   =      -0.00323137 Ry
     cavitation energy         =       0.01979446 Ry
     PV energy                 =      -0.08445717 Ry
     correction to one-el term =     220.90724156 Ry

     iteration #  5     ecut=    50.00 Ry     beta= 0.70
     Davidson diagonalization with overlap
     ethr =  1.31E-04,  avg # of iterations =  1.0

     total cpu time spent up to now is     2594.9 secs

     total energy              =   -3434.94452881 Ry
     estimated scf accuracy    <       0.20424442 Ry
     electrostatic embedding   =      -0.00343624 Ry
     cavitation energy         =       0.02006073 Ry
     PV energy                 =      -0.08400098 Ry
     correction to one-el term =     220.90748348 Ry

     iteration #  6     ecut=    50.00 Ry     beta= 0.70
     Davidson diagonalization with overlap
     ethr =  5.58E-05,  avg # of iterations =  2.0

     total cpu time spent up to now is     2811.5 secs

     total energy              =   -3434.93573175 Ry
     estimated scf accuracy    <       0.14798711 Ry
     electrostatic embedding   =      -0.00356441 Ry
     cavitation energy         =       0.02049867 Ry
     PV energy                 =      -0.08298179 Ry
     correction to one-el term =     220.90735137 Ry

     iteration #  7     ecut=    50.00 Ry     beta= 0.70
     Davidson diagonalization with overlap
     ethr =  4.04E-05,  avg # of iterations = 11.0

     add environment contribution to local potential
     Polarization accuracy = 7.2E-12, # of iterations =  40

     total cpu time spent up to now is     3045.9 secs

     total energy              =   -3434.93118315 Ry
     estimated scf accuracy    <       0.07999462 Ry
     electrostatic embedding   =      -0.00351517 Ry
     cavitation energy         =       0.02087110 Ry
     PV energy                 =      -0.08195688 Ry
     correction to one-el term =     220.90683259 Ry

     iteration #  8     ecut=    50.00 Ry     beta= 0.70
     Davidson diagonalization with overlap
     ethr =  2.19E-05,  avg # of iterations = 10.0

     total cpu time spent up to now is     3340.5 secs

     total energy              =   -3434.99646041 Ry
     estimated scf accuracy    <       0.20443013 Ry
     electrostatic embedding   =      -0.06538948 Ry
     cavitation energy         =       0.02118763 Ry
     PV energy                 =      -0.08100131 Ry
     correction to one-el term =     183.80768186 Ry

     iteration #  9     ecut=    50.00 Ry     beta= 0.70
     Davidson diagonalization with overlap
     ethr =  2.19E-05,  avg # of iterations =  1.0

     total cpu time spent up to now is     3646.2 secs

     total energy              =   -3434.97705813 Ry
     estimated scf accuracy    <       0.10681178 Ry
     electrostatic embedding   =      -0.06584959 Ry
     cavitation energy         =       0.02119385 Ry
     PV energy                 =      -0.08094933 Ry
     correction to one-el term =     183.80908176 Ry

     iteration # 10     ecut=    50.00 Ry     beta= 0.70
     Davidson diagonalization with overlap
     ethr =  2.19E-05,  avg # of iterations =  3.0

     add environment contribution to local potential
     Polarization accuracy = 9.1E-12, # of iterations =  44

     total cpu time spent up to now is     3931.2 secs

     total energy              =   -3434.97294605 Ry
     estimated scf accuracy    <       0.02164649 Ry
     electrostatic embedding   =      -0.07033745 Ry
     cavitation energy         =       0.02145351 Ry
     PV energy                 =      -0.08024672 Ry
     correction to one-el term =     183.82407642 Ry

     iteration # 11     ecut=    50.00 Ry     beta= 0.70
     Davidson diagonalization with overlap
     ethr =  5.91E-06,  avg # of iterations =  4.0

     negative rho (up, down):  8.185E-04 0.000E+00

     add environment contribution to local potential
     Polarization accuracy = 7.5E-12, # of iterations =  47

     total cpu time spent up to now is     4234.1 secs

     total energy              =   -3434.99042800 Ry
     estimated scf accuracy    <       0.01464481 Ry
     electrostatic embedding   =      -0.08501640 Ry
     cavitation energy         =       0.02124339 Ry
     PV energy                 =      -0.08042301 Ry
     correction to one-el term =     182.94125931 Ry

     iteration # 12     ecut=    50.00 Ry     beta= 0.70
     Davidson diagonalization with overlap
     ethr =  4.00E-06,  avg # of iterations =  5.0

     negative rho (up, down):  8.656E-04 0.000E+00

     add environment contribution to local potential
     Polarization accuracy = 4.3E-12, # of iterations =  47

     total cpu time spent up to now is     4550.6 secs

     total energy              =   -3434.99294134 Ry
     estimated scf accuracy    <       0.00329478 Ry
     electrostatic embedding   =      -0.09506547 Ry
     cavitation energy         =       0.02120813 Ry
     PV energy                 =      -0.08028858 Ry
     correction to one-el term =     182.93833524 Ry

     iteration # 13     ecut=    50.00 Ry     beta= 0.70
     Davidson diagonalization with overlap
     ethr =  9.00E-07,  avg # of iterations =  5.0

     negative rho (up, down):  3.077E-04 0.000E+00

     add environment contribution to local potential
     Polarization accuracy = 7.9E-12, # of iterations =  45

     total cpu time spent up to now is     4894.9 secs

     total energy              =   -3434.99414940 Ry
     estimated scf accuracy    <       0.00517946 Ry
     electrostatic embedding   =      -0.10001383 Ry
     cavitation energy         =       0.02107573 Ry
     PV energy                 =      -0.08037367 Ry
     correction to one-el term =     183.77598153 Ry

     iteration # 14     ecut=    50.00 Ry     beta= 0.70
     Davidson diagonalization with overlap
     ethr =  9.00E-07,  avg # of iterations =  6.0

     negative rho (up, down):  2.449E-08 0.000E+00

     add environment contribution to local potential
     Polarization accuracy = 1.9E-12, # of iterations =  46

     total cpu time spent up to now is     5197.0 secs

     total energy              =   -3434.99446618 Ry
     estimated scf accuracy    <       0.00459034 Ry
     electrostatic embedding   =      -0.10160416 Ry
     cavitation energy         =       0.02094909 Ry
     PV energy                 =      -0.08051283 Ry
     correction to one-el term =     184.75232469 Ry

     iteration # 15     ecut=    50.00 Ry     beta= 0.70
     Davidson diagonalization with overlap
     ethr =  9.00E-07,  avg # of iterations =  6.0

     negative rho (up, down):  1.116E-07 0.000E+00

     add environment contribution to local potential
     Polarization accuracy = 5.2E-12, # of iterations =  43

     total cpu time spent up to now is     5464.4 secs

     total energy              =   -3434.99491427 Ry
     estimated scf accuracy    <       0.00272371 Ry
     electrostatic embedding   =      -0.09955311 Ry
     cavitation energy         =       0.02085269 Ry
     PV energy                 =      -0.08068199 Ry
     correction to one-el term =     185.93276119 Ry

     iteration # 16     ecut=    50.00 Ry     beta= 0.70
     Davidson diagonalization with overlap
     ethr =  7.44E-07,  avg # of iterations =  7.0

     negative rho (up, down):  4.251E-04 0.000E+00

     add environment contribution to local potential
     Polarization accuracy = 5.2E-12, # of iterations =  43

     total cpu time spent up to now is     5750.1 secs

     total energy              =   -3434.99511712 Ry
     estimated scf accuracy    <       0.00116640 Ry
     electrostatic embedding   =      -0.09784809 Ry
     cavitation energy         =       0.02081552 Ry
     PV energy                 =      -0.08075270 Ry
     correction to one-el term =     186.68065115 Ry

     iteration # 17     ecut=    50.00 Ry     beta= 0.70
     Davidson diagonalization with overlap
     ethr =  3.19E-07,  avg # of iterations =  8.0

     negative rho (up, down):  7.632E-04 0.000E+00

     add environment contribution to local potential
     Polarization accuracy = 8.7E-12, # of iterations =  43

     total cpu time spent up to now is     6079.3 secs

     total energy              =   -3434.99525174 Ry
     estimated scf accuracy    <       0.00035392 Ry
     electrostatic embedding   =      -0.09555094 Ry
     cavitation energy         =       0.02081145 Ry
     PV energy                 =      -0.08075220 Ry
     correction to one-el term =     187.17931968 Ry

     iteration # 18     ecut=    50.00 Ry     beta= 0.70
     Davidson diagonalization with overlap
     ethr =  9.67E-08,  avg # of iterations =  2.0

     negative rho (up, down):  3.392E-04 0.000E+00

     add environment contribution to local potential
     Polarization accuracy = 9.9E-12, # of iterations =  43

     total cpu time spent up to now is     6330.2 secs

     total energy              =   -3434.99531845 Ry
     estimated scf accuracy    <       0.00012427 Ry
     electrostatic embedding   =      -0.09378567 Ry
     cavitation energy         =       0.02083025 Ry
     PV energy                 =      -0.08071883 Ry
     correction to one-el term =     187.34806538 Ry

     iteration # 19     ecut=    50.00 Ry     beta= 0.70
     Davidson diagonalization with overlap
     ethr =  3.40E-08,  avg # of iterations =  2.0

     negative rho (up, down):  4.977E-04 0.000E+00

     add environment contribution to local potential
     Polarization accuracy = 9.7E-12, # of iterations =  43

     total cpu time spent up to now is     6622.3 secs

     total energy              =   -3434.99534433 Ry
     estimated scf accuracy    <       0.00005846 Ry
     electrostatic embedding   =      -0.09261135 Ry
     cavitation energy         =       0.02083138 Ry
     PV energy                 =      -0.08071133 Ry
     correction to one-el term =     187.45391432 Ry

     iteration # 20     ecut=    50.00 Ry     beta= 0.70
     Davidson diagonalization with overlap
     ethr =  1.60E-08,  avg # of iterations =  2.0

     negative rho (up, down):  4.416E-05 0.000E+00

     add environment contribution to local potential
     Polarization accuracy = 9.9E-12, # of iterations =  43

     total cpu time spent up to now is     6872.0 secs

     total energy              =   -3434.99536166 Ry
     estimated scf accuracy    <       0.00000606 Ry
     electrostatic embedding   =      -0.09140348 Ry
     cavitation energy         =       0.02083136 Ry
     PV energy                 =      -0.08070696 Ry
     correction to one-el term =     187.59035172 Ry

     iteration # 21     ecut=    50.00 Ry     beta= 0.70
     Davidson diagonalization with overlap
     ethr =  1.66E-09,  avg # of iterations = 12.0

     negative rho (up, down):  7.834E-05 0.000E+00

     add environment contribution to local potential
     Polarization accuracy = 9.0E-12, # of iterations =  43

     total cpu time spent up to now is     7196.6 secs

     total energy              =   -3434.99536756 Ry
     estimated scf accuracy    <       0.00000300 Ry
     electrostatic embedding   =      -0.09075836 Ry
     cavitation energy         =       0.02083004 Ry
     PV energy                 =      -0.08070130 Ry
     correction to one-el term =     187.63064954 Ry

     iteration # 22     ecut=    50.00 Ry     beta= 0.70
     Davidson diagonalization with overlap
     ethr =  8.20E-10,  avg # of iterations =  2.0

     negative rho (up, down):  6.713E-05 0.000E+00

     add environment contribution to local potential
     Polarization accuracy = 6.7E-12, # of iterations =  43

     total cpu time spent up to now is     7528.3 secs

     total energy              =   -3434.99536947 Ry
     estimated scf accuracy    <       0.00000098 Ry
     electrostatic embedding   =      -0.09052936 Ry
     cavitation energy         =       0.02082438 Ry
     PV energy                 =      -0.08070766 Ry
     correction to one-el term =     187.66647878 Ry

     iteration # 23     ecut=    50.00 Ry     beta= 0.70
     Davidson diagonalization with overlap
     ethr =  2.68E-10,  avg # of iterations =  3.0

     negative rho (up, down):  6.978E-05 0.000E+00

     add environment contribution to local potential
     Polarization accuracy = 5.7E-12, # of iterations =  43

     total cpu time spent up to now is     7835.3 secs

     total energy              =   -3434.99537078 Ry
     estimated scf accuracy    <       0.00000030 Ry
     electrostatic embedding   =      -0.09032906 Ry
     cavitation energy         =       0.02082240 Ry
     PV energy                 =      -0.08070955 Ry
     correction to one-el term =     187.68429974 Ry

     iteration # 24     ecut=    50.00 Ry     beta= 0.70
     Davidson diagonalization with overlap
     ethr =  8.14E-11,  avg # of iterations =  2.0

     negative rho (up, down):  1.162E-04 0.000E+00

     add environment contribution to local potential
     Polarization accuracy = 7.5E-12, # of iterations =  43

     total cpu time spent up to now is     8151.8 secs

     total energy              =   -3434.99537137 Ry
     estimated scf accuracy    <       0.00000017 Ry
     electrostatic embedding   =      -0.09026540 Ry
     cavitation energy         =       0.02082236 Ry
     PV energy                 =      -0.08070959 Ry
     correction to one-el term =     187.69033316 Ry

     iteration # 25     ecut=    50.00 Ry     beta= 0.70
     Davidson diagonalization with overlap
     ethr =  4.69E-11,  avg # of iterations =  3.0

     negative rho (up, down):  1.228E-04 0.000E+00

     add environment contribution to local potential
     Polarization accuracy = 8.3E-12, # of iterations =  43

     total cpu time spent up to now is     8482.7 secs

     total energy              =   -3434.99537221 Ry
     estimated scf accuracy    <       0.00000011 Ry
     electrostatic embedding   =      -0.09019046 Ry
     cavitation energy         =       0.02082114 Ry
     PV energy                 =      -0.08071149 Ry
     correction to one-el term =     187.70449646 Ry

     iteration # 26     ecut=    50.00 Ry     beta= 0.70
     Davidson diagonalization with overlap
     ethr =  2.92E-11,  avg # of iterations =  2.0

     negative rho (up, down):  1.461E-04 0.000E+00

     add environment contribution to local potential
     Polarization accuracy = 9.2E-12, # of iterations =  43

     total cpu time spent up to now is     8746.3 secs

     total energy              =   -3434.99537257 Ry
     estimated scf accuracy    <       0.00000008 Ry
     electrostatic embedding   =      -0.09017658 Ry
     cavitation energy         =       0.02082110 Ry
     PV energy                 =      -0.08071201 Ry
     correction to one-el term =     187.70639561 Ry

     iteration # 27     ecut=    50.00 Ry     beta= 0.70
     Davidson diagonalization with overlap
     ethr =  2.27E-11,  avg # of iterations =  2.0

     negative rho (up, down):  1.522E-04 0.000E+00

     add environment contribution to local potential
     Polarization accuracy = 8.5E-12, # of iterations =  43

     total cpu time spent up to now is     9021.3 secs

     total energy              =   -3434.99537303 Ry
     estimated scf accuracy    <       0.00000007 Ry
     electrostatic embedding   =      -0.09016396 Ry
     cavitation energy         =       0.02082102 Ry
     PV energy                 =      -0.08071251 Ry
     correction to one-el term =     187.71018108 Ry

     iteration # 28     ecut=    50.00 Ry     beta= 0.70
     Davidson diagonalization with overlap
     ethr =  1.90E-11,  avg # of iterations =  2.0

     negative rho (up, down):  1.506E-04 0.000E+00

     add environment contribution to local potential
     Polarization accuracy = 8.5E-12, # of iterations =  43

     total cpu time spent up to now is     9280.2 secs

     total energy              =   -3434.99537347 Ry
     estimated scf accuracy    <       0.00000006 Ry
     electrostatic embedding   =      -0.09015720 Ry
     cavitation energy         =       0.02082099 Ry
     PV energy                 =      -0.08071275 Ry
     correction to one-el term =     187.71189330 Ry

     iteration # 29     ecut=    50.00 Ry     beta= 0.70
     Davidson diagonalization with overlap
     ethr =  1.71E-11,  avg # of iterations =  2.0

     negative rho (up, down):  1.497E-04 0.000E+00

     add environment contribution to local potential
     Polarization accuracy = 9.5E-12, # of iterations =  43

     total cpu time spent up to now is     9586.0 secs

     total energy              =   -3434.99537457 Ry
     estimated scf accuracy    <       0.00000006 Ry
     electrostatic embedding   =      -0.09014025 Ry
     cavitation energy         =       0.02082099 Ry
     PV energy                 =      -0.08071289 Ry
     correction to one-el term =     187.71457862 Ry

     iteration # 30     ecut=    50.00 Ry     beta= 0.70
     Davidson diagonalization with overlap
     ethr =  1.61E-11,  avg # of iterations =  2.0

     negative rho (up, down):  1.336E-04 0.000E+00

     add environment contribution to local potential
     Polarization accuracy = 8.6E-12, # of iterations =  43

     total cpu time spent up to now is     9855.7 secs

     total energy              =   -3434.99537511 Ry
     estimated scf accuracy    <       0.00000005 Ry
     electrostatic embedding   =      -0.09014868 Ry
     cavitation energy         =       0.02082106 Ry
     PV energy                 =      -0.08071276 Ry
     correction to one-el term =     187.71365952 Ry

     iteration # 31     ecut=    50.00 Ry     beta= 0.70
     Davidson diagonalization with overlap
     ethr =  1.49E-11,  avg # of iterations =  2.0

     negative rho (up, down):  1.324E-04 0.000E+00

     add environment contribution to local potential
     Polarization accuracy = 8.1E-12, # of iterations =  43

     total cpu time spent up to now is    10136.5 secs

     total energy              =   -3434.99537801 Ry
     estimated scf accuracy    <       0.00000005 Ry
     electrostatic embedding   =      -0.09014465 Ry
     cavitation energy         =       0.02082110 Ry
     PV energy                 =      -0.08071240 Ry
     correction to one-el term =     187.71356345 Ry

     iteration # 32     ecut=    50.00 Ry     beta= 0.70
     Davidson diagonalization with overlap
     ethr =  1.26E-11,  avg # of iterations =  2.0

     negative rho (up, down):  1.218E-04 0.000E+00

     add environment contribution to local potential
     Polarization accuracy = 7.9E-12, # of iterations =  43

     total cpu time spent up to now is    10437.7 secs

     total energy              =   -3434.99538112 Ry
     estimated scf accuracy    <       0.00000004 Ry
     electrostatic embedding   =      -0.09013574 Ry
     cavitation energy         =       0.02082101 Ry
     PV energy                 =      -0.08071235 Ry
     correction to one-el term =     187.71433204 Ry

     iteration # 33     ecut=    50.00 Ry     beta= 0.70
     Davidson diagonalization with overlap
     ethr =  1.10E-11,  avg # of iterations =  5.0

     negative rho (up, down):  1.265E-04 0.000E+00

     add environment contribution to local potential
     Polarization accuracy = 8.3E-12, # of iterations =  43

     total cpu time spent up to now is    10745.7 secs

     total energy              =   -3434.99538809 Ry
     estimated scf accuracy    <       0.00000002 Ry
     electrostatic embedding   =      -0.09014288 Ry
     cavitation energy         =       0.02082100 Ry
     PV energy                 =      -0.08071192 Ry
     correction to one-el term =     187.71184664 Ry

     iteration # 34     ecut=    50.00 Ry     beta= 0.70
     Davidson diagonalization with overlap
     ethr =  5.75E-12,  avg # of iterations =  3.0

     negative rho (up, down):  1.317E-04 0.000E+00

     add environment contribution to local potential
     Polarization accuracy = 7.4E-12, # of iterations =  43

     total cpu time spent up to now is    11069.6 secs

     total energy              =   -3434.99539441 Ry
     estimated scf accuracy    <          9.7E-09 Ry
     electrostatic embedding   =      -0.09015761 Ry
     cavitation energy         =       0.02082098 Ry
     PV energy                 =      -0.08071192 Ry
     correction to one-el term =     187.70878519 Ry

     iteration # 35     ecut=    50.00 Ry     beta= 0.70
     Davidson diagonalization with overlap
     ethr =  2.65E-12,  avg # of iterations =  5.0

     negative rho (up, down):  1.404E-04 0.000E+00

     add environment contribution to local potential
     Polarization accuracy = 8.0E-12, # of iterations =  43

     total cpu time spent up to now is    11399.9 secs

     total energy              =   -3434.99539720 Ry
     estimated scf accuracy    <          5.1E-09 Ry
     electrostatic embedding   =      -0.09014952 Ry
     cavitation energy         =       0.02082101 Ry
     PV energy                 =      -0.08071217 Ry
     correction to one-el term =     187.71088790 Ry

     iteration # 36     ecut=    50.00 Ry     beta= 0.70
     Davidson diagonalization with overlap
     ethr =  1.39E-12,  avg # of iterations =  2.0

     negative rho (up, down):  1.399E-04 0.000E+00

     add environment contribution to local potential
     Polarization accuracy = 8.5E-12, # of iterations =  43

     total cpu time spent up to now is    11729.1 secs

     total energy              =   -3434.99539919 Ry
     estimated scf accuracy    <          1.6E-09 Ry
     electrostatic embedding   =      -0.09015282 Ry
     cavitation energy         =       0.02082104 Ry
     PV energy                 =      -0.08071247 Ry
     correction to one-el term =     187.71096795 Ry

     iteration # 37     ecut=    50.00 Ry     beta= 0.70
     Davidson diagonalization with overlap
     ethr =  4.25E-13,  avg # of iterations =  2.0

     negative rho (up, down):  1.408E-04 0.000E+00

     the potential shift due to the Gaussian-smeared nuclei is    -1.3426 ev

     total cpu time spent up to now is    12019.9 secs

     End of self-consistent calculation

          k = 0.2500 0.2752 0.0000 ( 34780 PWs)   bands (ev):

   -77.5917 -77.5780 -77.2490 -77.2359 -77.1457 -77.1326 -76.9709 -76.9577
   -76.9353 -76.9143 -76.7840 -76.7798 -48.1056 -48.0919 -47.7040 -47.6909
   -47.5446 -47.5314 -47.4844 -47.4707 -47.4138 -47.3263 -47.2178 -47.2042
   -47.1756 -47.1735 -47.1624 -47.1602 -47.0811 -47.0686 -47.0618 -47.0486
   -47.0306 -46.9853 -46.9707 -46.9595 -46.9574 -46.9458 -46.8198 -46.8087
   -46.7901 -46.7769 -46.7636 -46.7319 -46.7290 -46.7166 -46.6244 -46.5773
   -26.6480 -26.6288 -23.6102 -23.5123 -23.3415 -23.1694 -23.1396 -22.9806
   -22.8651 -22.6168 -22.5175 -22.4182 -22.3994 -22.3117 -22.2855 -22.2376
   -22.2024 -22.1666 -22.0800 -22.0126 -21.9764 -21.9712 -21.8046 -21.6684
   -21.4014 -21.3307 -21.2744 -21.2017 -13.8495 -13.8307 -11.9789 -11.8669
   -11.7879 -11.7737 -11.6146 -11.2815 -11.2583 -11.0575 -10.9190 -10.8442
   -10.8141 -10.7289 -10.6921 -10.6763 -10.6201 -10.6034 -10.4254 -10.4228
   -10.3965 -10.2720 -10.1182 -10.1075 -10.0289  -9.8326  -9.7437  -9.7384
    -9.6401  -9.6138  -9.4752  -9.4349  -9.3589  -9.2710  -9.1901  -9.1277
    -8.9745  -8.8960  -8.8751  -8.8120  -8.7852  -8.6866  -8.6534  -8.5707
    -8.4688  -8.3779  -8.3590  -8.1264  -8.1085  -8.0226  -7.9561  -7.8810
    -7.7895  -7.7593  -7.7508  -7.7319  -7.6289  -7.5621  -7.4799  -7.4100
    -7.3390  -7.3184  -7.2827  -7.1533  -7.1426  -6.9446  -6.9368  -6.8932
    -6.7167  -6.6703  -6.5270  -6.5137  -6.4440  -6.4238  -6.3996  -6.2719
    -6.1207  -6.0507  -5.9868  -5.9470  -5.9215  -5.8014  -5.7947  -5.7232
    -4.6952  -4.6179  -4.5189  -4.5014  -4.4131  -4.4080  -4.3650  -4.3044
    -4.2855  -4.2381  -4.2060  -4.1951  -4.1059  -4.0947  -4.0239  -3.9090
    -3.9055  -3.8450  -3.7609  -3.7541  -3.7006  -3.5667  -3.5364  -3.4030
    -3.2618  -3.2403  -3.1027  -3.0233  -2.7766  -2.7315  -2.6761  -2.6078
    -2.5020  -2.4900  -2.2967  -2.1618  -2.0838  -1.6860  -1.5433  -1.5138
    -1.4306  -1.1274  -0.9044  -0.6269  -0.5787  -0.2209   0.0929   0.1523
     0.2133   0.2764   0.4343   0.5311   0.7662   0.9051   1.0055   1.2254
     1.2682   1.4503   1.4875   1.5373

     the Fermi energy is    -3.4682 ev

!    total energy              =   -3434.99539970 Ry
     estimated scf accuracy    <          5.1E-10 Ry
     smearing contrib. (-TS)   =       0.04867237 Ry
     internal energy E=F+TS    =   -3435.04407207 Ry

     The total energy is F=E-TS. E is the sum of the following terms:
     one-electron contribution =  -25475.88351788 Ry
     hartree contribution      =   12725.86289032 Ry
     xc contribution           =    -448.42035657 Ry
     ewald contribution        =    9842.35773851 Ry
     one-center paw contrib.   =    -266.52196201 Ry
     electrostatic embedding   =      -0.09015297 Ry
     cavitation energy         =       0.02082106 Ry
     PV energy                 =      -0.08071248 Ry
     correction to one-el term =     187.71117995 Ry

     WARNING: you are using the parabolic pbc correction;
              the potential shift above must be added to 
              band and Fermi energies.

     convergence has been achieved in  37 iterations

     negative rho (up, down):  1.408E-04 0.000E+00

     Forces acting on atoms (cartesian axes, Ry/au):

     atom    1 type  1   force =     0.03861017    0.00000000   -0.02252325
     atom    2 type  1   force =    -0.00236132    0.00000000   -0.01070950
     atom    3 type  1   force =     0.00107225    0.00000000    0.12791248
     atom    4 type  1   force =    -0.00059508    0.00000000   -0.02030162
     atom    5 type  2   force =     0.05200421    0.00000000    0.01063830
     atom    6 type  2   force =    -0.05033462    0.00000000    0.01285066
     atom    7 type  1   force =    -0.00668057    0.07040992    0.00085223
     atom    8 type  1   force =     0.00686078    0.05253359   -0.00023091
     atom    9 type  2   force =     0.00076478    0.00000000    0.00425481
     atom   10 type  2   force =     0.00261077    0.00000000    0.01090460
     atom   11 type  1   force =    -0.00668057   -0.07040992    0.00085223
     atom   12 type  1   force =     0.00686078   -0.05253359   -0.00023091
     atom   13 type  1   force =    -0.00096793    0.00000000   -0.00845681
     atom   14 type  1   force =     0.00159919    0.00000000   -0.00359381
     atom   15 type  1   force =    -0.00348925    0.00000000   -0.00047174
     atom   16 type  1   force =     0.00088154    0.00000000    0.01523657
     atom   17 type  2   force =     0.01569567    0.00000000    0.00000000
     atom   18 type  2   force =    -0.01664673    0.00000000    0.00000000
     atom   19 type  1   force =    -0.00416592   -0.04403206    0.00000000
     atom   20 type  1   force =     0.00246728   -0.08951275    0.00000000
     atom   21 type  2   force =    -0.01267488    0.00000000    0.00000000
     atom   22 type  2   force =     0.01737149    0.00000000    0.00000000
     atom   23 type  1   force =    -0.00416592    0.04403206    0.00000000
     atom   24 type  1   force =     0.00246728    0.08951275    0.00000000
     atom   25 type  1   force =    -0.00348925    0.00000000    0.00047174
     atom   26 type  1   force =     0.00088154    0.00000000   -0.01523657
     atom   27 type  1   force =    -0.00096793    0.00000000    0.00845681
     atom   28 type  1   force =     0.00159919    0.00000000    0.00359381
     atom   29 type  2   force =     0.05200421    0.00000000   -0.01063830
     atom   30 type  2   force =    -0.05033462    0.00000000   -0.01285066
     atom   31 type  1   force =    -0.00668057    0.07040992   -0.00085223
     atom   32 type  1   force =     0.00686078    0.05253359    0.00023091
     atom   33 type  2   force =     0.00076478    0.00000000   -0.00425481
     atom   34 type  2   force =     0.00261077    0.00000000   -0.01090460
     atom   35 type  1   force =    -0.00668057   -0.07040992   -0.00085223
     atom   36 type  1   force =     0.00686078   -0.05253359    0.00023091
     atom   37 type  1   force =     0.00107225    0.00000000   -0.12791248
     atom   38 type  1   force =    -0.00059508    0.00000000    0.02030162
     atom   39 type  1   force =     0.03861017    0.00000000    0.02252325
     atom   40 type  1   force =    -0.00236132    0.00000000    0.01070950
     atom   41 type  3   force =    -0.03830950    0.00000000    0.00761681
     atom   42 type  3   force =    -0.03830950    0.00000000   -0.00761681
     atom   43 type  3   force =    -0.00100988    0.11625740   -0.06336266
     atom   44 type  3   force =    -0.00100988    0.11625740    0.06336266
     atom   45 type  3   force =    -0.00100988   -0.11625740   -0.06336266
     atom   46 type  3   force =    -0.00100988   -0.11625740    0.06336266
     The non-local contrib.  to forces
     atom    1 type  1   force =     1.69485601    0.00000000    0.50265694
     atom    2 type  1   force =     0.01354549    0.00000000    1.17238217
     atom    3 type  1   force =    -0.02673598    0.00000000   -1.54687546
     atom    4 type  1   force =    -0.00330103    0.00000000    1.14097221
     atom    5 type  2   force =    -0.05101967    0.00000000   -0.02194718
     atom    6 type  2   force =     0.04585952    0.00000000   -0.01799953
     atom    7 type  1   force =     0.00667090   -0.07085961   -0.07862620
     atom    8 type  1   force =    -0.05617260   -0.05746610   -0.01383018
     atom    9 type  2   force =     0.00008554    0.00000000    0.02779504
     atom   10 type  2   force =    -0.00586809    0.00000000   -0.03462475
     atom   11 type  1   force =     0.00667090    0.07085961   -0.07862620
     atom   12 type  1   force =    -0.05617260    0.05746610   -0.01383018
     atom   13 type  1   force =    -0.01399348    0.00000000    0.08064328
     atom   14 type  1   force =    -0.00617318    0.00000000   -0.16561714
     atom   15 type  1   force =    -0.01452722    0.00000000   -0.10591723
     atom   16 type  1   force =    -0.00207307    0.00000000    0.23280186
     atom   17 type  2   force =    -0.00797457    0.00000000    0.00000000
     atom   18 type  2   force =     0.00388521    0.00000000    0.00000000
     atom   19 type  1   force =     0.04372616    0.09475304    0.00000000
     atom   20 type  1   force =    -0.04179144    0.02962717    0.00000000
     atom   21 type  2   force =     0.01879119    0.00000000    0.00000000
     atom   22 type  2   force =    -0.01158101    0.00000000    0.00000000
     atom   23 type  1   force =     0.04372616   -0.09475304    0.00000000
     atom   24 type  1   force =    -0.04179144   -0.02962717    0.00000000
     atom   25 type  1   force =    -0.01452722    0.00000000    0.10591723
     atom   26 type  1   force =    -0.00207307    0.00000000   -0.23280186
     atom   27 type  1   force =    -0.01399348    0.00000000   -0.08064328
     atom   28 type  1   force =    -0.00617318    0.00000000    0.16561714
     atom   29 type  2   force =    -0.05101967    0.00000000    0.02194718
     atom   30 type  2   force =     0.04585952    0.00000000    0.01799953
     atom   31 type  1   force =     0.00667090   -0.07085961    0.07862620
     atom   32 type  1   force =    -0.05617260   -0.05746610    0.01383018
     atom   33 type  2   force =     0.00008554    0.00000000   -0.02779504
     atom   34 type  2   force =    -0.00586809    0.00000000    0.03462475
     atom   35 type  1   force =     0.00667090    0.07085961    0.07862620
     atom   36 type  1   force =    -0.05617260    0.05746610    0.01383018
     atom   37 type  1   force =    -0.02673598    0.00000000    1.54687546
     atom   38 type  1   force =    -0.00330103    0.00000000   -1.14097221
     atom   39 type  1   force =     1.69485601    0.00000000   -0.50265694
     atom   40 type  1   force =     0.01354549    0.00000000   -1.17238217
     atom   41 type  3   force =    -0.09099304    0.00000000    0.02515346
     atom   42 type  3   force =    -0.09099304    0.00000000   -0.02515346
     atom   43 type  3   force =     0.00105121   -0.10326648    0.08626801
     atom   44 type  3   force =     0.00105121   -0.10326648   -0.08626801
     atom   45 type  3   force =     0.00105121    0.10326648    0.08626801
     atom   46 type  3   force =     0.00105121    0.10326648   -0.08626801
     The ionic contribution  to forces
     atom    1 type  1   force =    -3.32640201    0.00000013  -95.88921890
     atom    2 type  1   force =     0.27876400    0.00000014 -101.08335967
     atom    3 type  1   force =    -0.10609917   -0.00000020  -88.49066622
     atom    4 type  1   force =     0.20512293   -0.00000030  -94.75223670
     atom    5 type  2   force =    -5.01558313   -0.00000234 -170.88108241
     atom    6 type  2   force =     4.80639563   -0.00000217 -172.13352745
     atom    7 type  1   force =    -0.25379932    0.88347580  -62.57617251
     atom    8 type  1   force =     0.56096972    0.60840836  -64.77177855
     atom    9 type  2   force =    -1.35107113    0.00000309 -167.23741424
     atom   10 type  2   force =     1.26116830    0.00000247 -175.76237726
     atom   11 type  1   force =    -0.25379931   -0.88347534  -62.57617013
     atom   12 type  1   force =     0.56096971   -0.60840791  -64.77177642
     atom   13 type  1   force =     0.03330389   -0.00000170  -39.71542807
     atom   14 type  1   force =     0.14998048   -0.00000170  -37.21517319
     atom   15 type  1   force =    -0.15019855    0.00000954  -24.50447634
     atom   16 type  1   force =     0.14603741    0.00000849  -27.85699072
     atom   17 type  2   force =     0.17832657    0.00001282   -0.00044580
     atom   18 type  2   force =    -0.16240661    0.00001298   -0.00046747
     atom   19 type  1   force =    -0.36199366   -0.48874533   -0.00008390
     atom   20 type  1   force =     0.36016237   -0.91451807   -0.00008085
     atom   21 type  2   force =     0.56342226    0.00011863   -0.00025844
     atom   22 type  2   force =    -0.53128552    0.00012440   -0.00024867
     atom   23 type  1   force =    -0.36199159    0.48859977   -0.00008390
     atom   24 type  1   force =     0.36016147    0.91436211   -0.00008085
     atom   25 type  1   force =    -0.15019935    0.00000954   24.50424603
     atom   26 type  1   force =     0.14603971    0.00000849   27.85684926
     atom   27 type  1   force =     0.03330421   -0.00000170   39.71570756
     atom   28 type  1   force =     0.14997789   -0.00000170   37.21549553
     atom   29 type  2   force =    -5.01547605   -0.00000234  170.88135962
     atom   30 type  2   force =     4.80629463   -0.00000217  172.13380196
     atom   31 type  1   force =    -0.25379370    0.88344436   62.57623861
     atom   32 type  1   force =     0.56096572    0.60838182   64.77184854
     atom   33 type  2   force =    -1.35108496    0.00000309  167.23754855
     atom   34 type  2   force =     1.26117591    0.00000247  175.76252918
     atom   35 type  1   force =    -0.25379370   -0.88344390   62.57623623
     atom   36 type  1   force =     0.56096571   -0.60838137   64.77184642
     atom   37 type  1   force =    -0.10609994   -0.00000020   88.49058343
     atom   38 type  1   force =     0.20512192   -0.00000030   94.75237752
     atom   39 type  1   force =    -3.32645359    0.00000013   95.88934300
     atom   40 type  1   force =     0.27876662    0.00000014  101.08342827
     atom   41 type  3   force =     2.60768399    0.00000002  -16.19088819
     atom   42 type  3   force =     2.60773512    0.00000002   16.19088084
     atom   43 type  3   force =    -0.08782026    2.66873992  -17.45241528
     atom   44 type  3   force =    -0.08782218    2.66901301   17.45249843
     atom   45 type  3   force =    -0.08782026   -2.66873995  -17.45241525
     atom   46 type  3   force =    -0.08782218   -2.66901303   17.45249841
     The local contribution  to forces
     atom    1 type  1   force =     1.62860901   -0.00000000   95.35383617
     atom    2 type  1   force =    -0.23011703   -0.00000000   99.81511101
     atom    3 type  1   force =     0.12203664    0.00000000   90.34017323
     atom    4 type  1   force =    -0.19115188   -0.00000000   93.53127978
     atom    5 type  2   force =     5.20029665   -0.00000000  170.94769714
     atom    6 type  2   force =    -4.98479746    0.00000000  172.17852088
     atom    7 type  1   force =     0.26455173   -0.73295725   62.65852027
     atom    8 type  1   force =    -0.52402938   -0.48413747   64.77161383
     atom    9 type  2   force =     1.32824653    0.00000000  167.23054290
     atom   10 type  2   force =    -1.22423066    0.00000000  175.71565279
     atom   11 type  1   force =     0.26455173    0.73295725   62.65852027
     atom   12 type  1   force =    -0.52402938    0.48413747   64.77161383
     atom   13 type  1   force =    -0.02247200    0.00000000   39.63858222
     atom   14 type  1   force =    -0.14044212   -0.00000000   37.36812193
     atom   15 type  1   force =     0.15971193    0.00000000   24.61003788
     atom   16 type  1   force =    -0.14159399    0.00000000   27.63661465
     atom   17 type  2   force =    -0.15649257    0.00000000   -0.00585231
     atom   18 type  2   force =     0.14351438    0.00000000   -0.00581085
     atom   19 type  1   force =     0.31710971    0.35036125   -0.00245874
     atom   20 type  1   force =    -0.31886726    0.79480017   -0.00247927
     atom   21 type  2   force =    -0.58836866   -0.00000000   -0.00606084
     atom   22 type  2   force =     0.55389958   -0.00000000   -0.00610074
     atom   23 type  1   force =     0.31710776   -0.35070514   -0.00245874
     atom   24 type  1   force =    -0.31886640   -0.79513676   -0.00247926
     atom   25 type  1   force =     0.15971375   -0.00000000  -24.61180178
     atom   26 type  1   force =    -0.14159171    0.00000000  -27.63837377
     atom   27 type  1   force =    -0.02247780    0.00000000  -39.64038390
     atom   28 type  1   force =    -0.14044479    0.00000000  -37.36985860
     atom   29 type  2   force =     5.20034571   -0.00000000 -170.95381089
     atom   30 type  2   force =    -4.98484450   -0.00000000 -172.18461637
     atom   31 type  1   force =     0.26457768   -0.73293491  -62.66097656
     atom   32 type  1   force =    -0.52405735   -0.48412099  -64.77408305
     atom   33 type  2   force =     1.32826466    0.00000000 -167.23635412
     atom   34 type  2   force =    -1.22427112    0.00000000 -175.72138458
     atom   35 type  1   force =     0.26457768    0.73293491  -62.66097656
     atom   36 type  1   force =    -0.52405735    0.48412099  -64.77408305
     atom   37 type  1   force =     0.12204270    0.00000000  -90.34385929
     atom   38 type  1   force =    -0.19115163    0.00000000  -93.53514847
     atom   39 type  1   force =     1.62863376   -0.00000000  -95.35542010
     atom   40 type  1   force =    -0.23016498    0.00000000  -99.81650635
     atom   41 type  3   force =    -2.54895435    0.00000000   16.17612710
     atom   42 type  3   force =    -2.54895435   -0.00000000  -16.17612710
     atom   43 type  3   force =     0.08269127   -2.43547225   17.35304093
     atom   44 type  3   force =     0.08269127   -2.43547225  -17.35304093
     atom   45 type  3   force =     0.08269127    2.43547225   17.35304093
     atom   46 type  3   force =     0.08269127    2.43547225  -17.35304093
     The core correction contribution to forces
     atom    1 type  1   force =    -0.01735962   -0.00000000   -0.00523649
     atom    2 type  1   force =     0.00008559    0.00000000   -0.00979188
     atom    3 type  1   force =     0.00023032   -0.00000000    0.01231585
     atom    4 type  1   force =     0.00004235    0.00000000   -0.01178872
     atom    5 type  2   force =     0.00000000    0.00000000    0.00000000
     atom    6 type  2   force =     0.00000000    0.00000000    0.00000000
     atom    7 type  1   force =    -0.00021144   -0.00075579    0.00076627
     atom    8 type  1   force =     0.00069307   -0.00057697    0.00018119
     atom    9 type  2   force =     0.00000000    0.00000000    0.00000000
     atom   10 type  2   force =     0.00000000    0.00000000    0.00000000
     atom   11 type  1   force =    -0.00021144    0.00075579    0.00076627
     atom   12 type  1   force =     0.00069307    0.00057697    0.00018119
     atom   13 type  1   force =     0.00011743   -0.00000000   -0.00070612
     atom   14 type  1   force =     0.00007763    0.00000000    0.00224138
     atom   15 type  1   force =     0.00021129    0.00000000    0.00069485
     atom   16 type  1   force =     0.00001802   -0.00000000   -0.00321311
     atom   17 type  2   force =     0.00000000    0.00000000    0.00000000
     atom   18 type  2   force =     0.00000000    0.00000000    0.00000000
     atom   19 type  1   force =    -0.00045132    0.00005276   -0.00000213
     atom   20 type  1   force =     0.00041312    0.00115962   -0.00000223
     atom   21 type  2   force =     0.00000000    0.00000000    0.00000000
     atom   22 type  2   force =     0.00000000    0.00000000    0.00000000
     atom   23 type  1   force =    -0.00045133   -0.00005326   -0.00000213
     atom   24 type  1   force =     0.00041313   -0.00116009   -0.00000223
     atom   25 type  1   force =     0.00021125   -0.00000000   -0.00069701
     atom   26 type  1   force =     0.00001807    0.00000000    0.00321099
     atom   27 type  1   force =     0.00011743   -0.00000000    0.00070391
     atom   28 type  1   force =     0.00007765    0.00000000   -0.00224370
     atom   29 type  2   force =     0.00000000    0.00000000    0.00000000
     atom   30 type  2   force =     0.00000000    0.00000000    0.00000000
     atom   31 type  1   force =    -0.00021133   -0.00075578   -0.00076816
     atom   32 type  1   force =     0.00069293   -0.00057687   -0.00018308
     atom   33 type  2   force =     0.00000000    0.00000000    0.00000000
     atom   34 type  2   force =     0.00000000    0.00000000    0.00000000
     atom   35 type  1   force =    -0.00021133    0.00075578   -0.00076816
     atom   36 type  1   force =     0.00069293    0.00057687   -0.00018308
     atom   37 type  1   force =     0.00023033   -0.00000000   -0.01231954
     atom   38 type  1   force =     0.00004225   -0.00000000    0.01178495
     atom   39 type  1   force =    -0.01736042    0.00000000    0.00523427
     atom   40 type  1   force =     0.00008542    0.00000000    0.00979003
     atom   41 type  3   force =     0.00000000    0.00000000    0.00000000
     atom   42 type  3   force =     0.00000000    0.00000000    0.00000000
     atom   43 type  3   force =     0.00000000    0.00000000    0.00000000
     atom   44 type  3   force =     0.00000000    0.00000000    0.00000000
     atom   45 type  3   force =     0.00000000    0.00000000    0.00000000
     atom   46 type  3   force =     0.00000000    0.00000000    0.00000000
     The Hubbard contrib.    to forces
     atom    1 type  1   force =     0.00000000    0.00000000    0.00000000
     atom    2 type  1   force =     0.00000000    0.00000000    0.00000000
     atom    3 type  1   force =     0.00000000    0.00000000    0.00000000
     atom    4 type  1   force =     0.00000000    0.00000000    0.00000000
     atom    5 type  2   force =     0.00000000    0.00000000    0.00000000
     atom    6 type  2   force =     0.00000000    0.00000000    0.00000000
     atom    7 type  1   force =     0.00000000    0.00000000    0.00000000
     atom    8 type  1   force =     0.00000000    0.00000000    0.00000000
     atom    9 type  2   force =     0.00000000    0.00000000    0.00000000
     atom   10 type  2   force =     0.00000000    0.00000000    0.00000000
     atom   11 type  1   force =     0.00000000    0.00000000    0.00000000
     atom   12 type  1   force =     0.00000000    0.00000000    0.00000000
     atom   13 type  1   force =     0.00000000    0.00000000    0.00000000
     atom   14 type  1   force =     0.00000000    0.00000000    0.00000000
     atom   15 type  1   force =     0.00000000    0.00000000    0.00000000
     atom   16 type  1   force =     0.00000000    0.00000000    0.00000000
     atom   17 type  2   force =     0.00000000    0.00000000    0.00000000
     atom   18 type  2   force =     0.00000000    0.00000000    0.00000000
     atom   19 type  1   force =     0.00000000    0.00000000    0.00000000
     atom   20 type  1   force =     0.00000000    0.00000000    0.00000000
     atom   21 type  2   force =     0.00000000    0.00000000    0.00000000
     atom   22 type  2   force =     0.00000000    0.00000000    0.00000000
     atom   23 type  1   force =     0.00000000    0.00000000    0.00000000
     atom   24 type  1   force =     0.00000000    0.00000000    0.00000000
     atom   25 type  1   force =     0.00000000    0.00000000    0.00000000
     atom   26 type  1   force =     0.00000000    0.00000000    0.00000000
     atom   27 type  1   force =     0.00000000    0.00000000    0.00000000
     atom   28 type  1   force =     0.00000000    0.00000000    0.00000000
     atom   29 type  2   force =     0.00000000    0.00000000    0.00000000
     atom   30 type  2   force =     0.00000000    0.00000000    0.00000000
     atom   31 type  1   force =     0.00000000    0.00000000    0.00000000
     atom   32 type  1   force =     0.00000000    0.00000000    0.00000000
     atom   33 type  2   force =     0.00000000    0.00000000    0.00000000
     atom   34 type  2   force =     0.00000000    0.00000000    0.00000000
     atom   35 type  1   force =     0.00000000    0.00000000    0.00000000
     atom   36 type  1   force =     0.00000000    0.00000000    0.00000000
     atom   37 type  1   force =     0.00000000    0.00000000    0.00000000
     atom   38 type  1   force =     0.00000000    0.00000000    0.00000000
     atom   39 type  1   force =     0.00000000    0.00000000    0.00000000
     atom   40 type  1   force =     0.00000000    0.00000000    0.00000000
     atom   41 type  3   force =     0.00000000    0.00000000    0.00000000
     atom   42 type  3   force =     0.00000000    0.00000000    0.00000000
     atom   43 type  3   force =     0.00000000    0.00000000    0.00000000
     atom   44 type  3   force =     0.00000000    0.00000000    0.00000000
     atom   45 type  3   force =     0.00000000    0.00000000    0.00000000
     atom   46 type  3   force =     0.00000000    0.00000000    0.00000000
     The SCF correction term to forces
     atom    1 type  1   force =     0.00000507   -0.00000002    0.00000428
     atom    2 type  1   force =    -0.00000356   -0.00000002    0.00000598
     atom    3 type  1   force =     0.00000387    0.00000002   -0.00000247
     atom    4 type  1   force =    -0.00000375    0.00000003    0.00000816
     atom    5 type  2   force =    -0.00002248    0.00000014    0.00000704
     atom    6 type  2   force =     0.00002287    0.00000013    0.00000863
     atom    7 type  1   force =    -0.00000260   -0.00000559    0.00000482
     atom    8 type  1   force =     0.00000284   -0.00000598    0.00000277
     atom    9 type  2   force =     0.00000946   -0.00000013    0.00000765
     atom   10 type  2   force =    -0.00000888   -0.00000012    0.00001760
     atom   11 type  1   force =    -0.00000260    0.00000555    0.00000479
     atom   12 type  1   force =     0.00000284    0.00000594    0.00000275
     atom   13 type  1   force =     0.00000363    0.00000006    0.00000219
     atom   14 type  1   force =    -0.00000363    0.00000006    0.00000953
     atom   15 type  1   force =     0.00001565   -0.00000008    0.00000569
     atom   16 type  1   force =    -0.00001474   -0.00000007    0.00000399
     atom   17 type  2   force =     0.00001571    0.00000024    0.00001414
     atom   18 type  2   force =    -0.00001637    0.00000024    0.00001439
     atom   19 type  1   force =     0.00000079    0.00000365    0.00000516
     atom   20 type  1   force =    -0.00000031   -0.00001550    0.00000522
     atom   21 type  2   force =    -0.00000409   -0.00000025    0.00001385
     atom   22 type  2   force =     0.00000013   -0.00000025    0.00001398
     atom   23 type  1   force =     0.00000079   -0.00000358    0.00000516
     atom   24 type  1   force =    -0.00000031    0.00001556    0.00000522
     atom   25 type  1   force =     0.00001560   -0.00000008    0.00000190
     atom   26 type  1   force =    -0.00001468   -0.00000007    0.00000308
     atom   27 type  1   force =     0.00000348    0.00000006    0.00000176
     atom   28 type  1   force =    -0.00000349    0.00000006   -0.00000548
     atom   29 type  2   force =    -0.00002231    0.00000014   -0.00001175
     atom   30 type  2   force =     0.00002275    0.00000013   -0.00001353
     atom   31 type  1   force =    -0.00000250   -0.00000584   -0.00000640
     atom   32 type  1   force =     0.00000273   -0.00000627   -0.00000452
     atom   33 type  2   force =     0.00000916   -0.00000013   -0.00001211
     atom   34 type  2   force =    -0.00000854   -0.00000012   -0.00002397
     atom   35 type  1   force =    -0.00000250    0.00000581   -0.00000638
     atom   36 type  1   force =     0.00000273    0.00000624   -0.00000450
     atom   37 type  1   force =     0.00000375    0.00000002   -0.00000128
     atom   38 type  1   force =    -0.00000361    0.00000003   -0.00001200
     atom   39 type  1   force =     0.00000490   -0.00000002   -0.00000756
     atom   40 type  1   force =    -0.00000343   -0.00000002   -0.00000933
     atom   41 type  3   force =    -0.00000034   -0.00000000    0.00000044
     atom   42 type  3   force =    -0.00000030   -0.00000000   -0.00000091
     atom   43 type  3   force =     0.00000043   -0.00000174    0.00000112
     atom   44 type  3   force =     0.00000041   -0.00000173   -0.00000159
     atom   45 type  3   force =     0.00000043    0.00000175    0.00000112
     atom   46 type  3   force =     0.00000041    0.00000173   -0.00000159

     Total force =     0.418483     Total SCF correction =     0.000090

     BFGS Geometry Optimization
     Energy error            =      0.0E+00 Ry
     Gradient error          =      1.3E-01 Ry/Bohr

     number of scf cycles    =   1
     number of bfgs steps    =   0

     energy             new  =   -3434.9953997029 Ry

     new trust radius        =       0.1324070608 bohr
     new conv_thr            =       0.0000000010 Ry


ATOMIC_POSITIONS (crystal)
O             0.0168507433        0.5000000000        0.2696819454
O             0.4774954371        0.5000000000        0.2716364679
O            -0.0019731291        0.0000000000        0.2922726731
O             0.4968692388        0.0000000000        0.3074696349
Ru            0.2606270695        0.0000000000        0.3583525664
Ru            0.7358945360        0.0000000000        0.3575938818
O             0.2451476925        0.3102089153        0.3585874699
O             0.7516508018        0.3120494605        0.3559670829
Ru           -0.0002548414        0.5000000000        0.3591636291
Ru            0.5002284755        0.5000000000        0.3503249107
O             0.2451476925        0.6897910847        0.3585874699
O             0.7516508018        0.6879505395        0.3559670829
O            -0.0048600144        0.0000000000        0.4115329639
O             0.4992955294        0.0000000000        0.4123965490
O            -0.0007901447        0.5000000000        0.4463900020
O             0.4979469627        0.5000000000        0.4409665956
Ru           -0.0028736844        0.0000000000        0.5000010000
Ru            0.4990732119        0.0000000000        0.5000010000
O             0.2476852705        0.1872244613        0.5000010000
O             0.7478845837        0.1885808026        0.5000010000
Ru            0.2550880137        0.5000000000        0.5000010000
Ru            0.7432453643        0.5000000000        0.5000010000
O             0.2476852705        0.8127765387        0.5000010000
O             0.7478845837        0.8114201974        0.5000010000
O            -0.0007901447        0.5000000000        0.5536109980
O             0.4979469627        0.5000000000        0.5590344044
O            -0.0048600144        0.0000000000        0.5884680361
O             0.4992955294        0.0000000000        0.5876044510
Ru            0.2606270695        0.0000000000        0.6416484336
Ru            0.7358945360        0.0000000000        0.6424071182
O             0.2451476925        0.3102089153        0.6414135301
O             0.7516508018        0.3120494605        0.6440339171
Ru           -0.0002548414        0.5000000000        0.6408373709
Ru            0.5002284755        0.5000000000        0.6496760893
O             0.2451476925        0.6897910847        0.6414135301
O             0.7516508018        0.6879505395        0.6440339171
O            -0.0019731291        0.0000000000        0.7077293269
O             0.4968692388        0.0000000000        0.6925323651
O             0.0168507433        0.5000000000        0.7303190546
O             0.4774954371        0.5000000000        0.7283645321
H             0.1600051617        0.5000000000        0.2591487186
H             0.1600051617        0.5000000000        0.7408512814
H            -0.0030666599        0.1304227339        0.2609504443
H            -0.0030666599        0.1304227339        0.7390495557
H            -0.0030666599        0.8695772661        0.2609504443
H            -0.0030666599        0.8695772661        0.7390495557



     Writing config-only to output data dir /storage/home/mgm6007/ixd4/Maria/StrainJin_Files/RuO2-110-0-024/RuO2-110-0-024.save/
     NEW-OLD atomic charge density approx. for the potential

     Check: negative core charge=   -0.000001

     negative rho (up, down):  1.277E-04 0.000E+00

     add environment contribution to local potential
     Polarization accuracy = 6.0E-12, # of iterations =  43

     total cpu time spent up to now is    12361.5 secs

     per-process dynamical memory:   203.5 Mb

     Self-consistent Calculation

     iteration #  1     ecut=    50.00 Ry     beta= 0.70
     Davidson diagonalization with overlap
     ethr =  1.00E-06,  avg # of iterations = 19.0

     negative rho (up, down):  2.713E-04 0.000E+00

     add environment contribution to local potential
     Polarization accuracy = 8.9E-12, # of iterations =  43

     total cpu time spent up to now is    12692.6 secs

     total energy              =   -3435.04028291 Ry
     estimated scf accuracy    <       0.05583642 Ry
     electrostatic embedding   =      -0.08612364 Ry
     cavitation energy         =       0.02082553 Ry
     PV energy                 =      -0.08091301 Ry
     correction to one-el term =     188.21825616 Ry

     iteration #  2     ecut=    50.00 Ry     beta= 0.70
     Davidson diagonalization with overlap
     ethr =  1.53E-05,  avg # of iterations =  2.0

     negative rho (up, down):  2.397E-04 0.000E+00

     add environment contribution to local potential
     Polarization accuracy = 4.1E-12, # of iterations =  43

     total cpu time spent up to now is    13013.0 secs

     total energy              =   -3435.04320121 Ry
     estimated scf accuracy    <       0.05635474 Ry
     electrostatic embedding   =      -0.08548904 Ry
     cavitation energy         =       0.02085978 Ry
     PV energy                 =      -0.08084222 Ry
     correction to one-el term =     188.61302817 Ry

     iteration #  3     ecut=    50.00 Ry     beta= 0.70
     Davidson diagonalization with overlap
     ethr =  1.53E-05,  avg # of iterations =  1.0

     negative rho (up, down):  2.854E-04 0.000E+00

     add environment contribution to local potential
     Polarization accuracy = 4.0E-12, # of iterations =  43

     total cpu time spent up to now is    13332.0 secs

     total energy              =   -3435.04572706 Ry
     estimated scf accuracy    <       0.00883705 Ry
     electrostatic embedding   =      -0.08542492 Ry
     cavitation energy         =       0.02084904 Ry
     PV energy                 =      -0.08086306 Ry
     correction to one-el term =     188.60160918 Ry

     iteration #  4     ecut=    50.00 Ry     beta= 0.70
     Davidson diagonalization with overlap
     ethr =  2.41E-06,  avg # of iterations =  2.0

     negative rho (up, down):  2.502E-04 0.000E+00

     add environment contribution to local potential
     Polarization accuracy = 7.6E-12, # of iterations =  43

     total cpu time spent up to now is    13668.1 secs

     total energy              =   -3435.04624547 Ry
     estimated scf accuracy    <       0.00168495 Ry
     electrostatic embedding   =      -0.08604820 Ry
     cavitation energy         =       0.02084789 Ry
     PV energy                 =      -0.08087002 Ry
     correction to one-el term =     188.69999206 Ry

     iteration #  5     ecut=    50.00 Ry     beta= 0.70
     Davidson diagonalization with overlap
     ethr =  4.60E-07,  avg # of iterations =  2.0

     negative rho (up, down):  1.932E-04 0.000E+00

     add environment contribution to local potential
     Polarization accuracy = 8.1E-12, # of iterations =  43

     total cpu time spent up to now is    13969.2 secs

     total energy              =   -3435.04642303 Ry
     estimated scf accuracy    <       0.00054275 Ry
     electrostatic embedding   =      -0.08668524 Ry
     cavitation energy         =       0.02084155 Ry
     PV energy                 =      -0.08088059 Ry
     correction to one-el term =     188.67705593 Ry

     iteration #  6     ecut=    50.00 Ry     beta= 0.70
     Davidson diagonalization with overlap
     ethr =  1.48E-07,  avg # of iterations =  2.0

     negative rho (up, down):  1.339E-04 0.000E+00

     add environment contribution to local potential
     Polarization accuracy = 5.6E-12, # of iterations =  43

     total cpu time spent up to now is    14298.2 secs

     total energy              =   -3435.04648368 Ry
     estimated scf accuracy    <       0.00011662 Ry
     electrostatic embedding   =      -0.08729904 Ry
     cavitation energy         =       0.02083691 Ry
     PV energy                 =      -0.08088733 Ry
     correction to one-el term =     188.62592508 Ry

     iteration #  7     ecut=    50.00 Ry     beta= 0.70
     Davidson diagonalization with overlap
     ethr =  3.19E-08,  avg # of iterations =  2.0

     negative rho (up, down):  7.527E-05 0.000E+00

     add environment contribution to local potential
     Polarization accuracy = 4.2E-12, # of iterations =  43

     total cpu time spent up to now is    14618.5 secs

     total energy              =   -3435.04650769 Ry
     estimated scf accuracy    <       0.00004560 Ry
     electrostatic embedding   =      -0.08796496 Ry
     cavitation energy         =       0.02083360 Ry
     PV energy                 =      -0.08089043 Ry
     correction to one-el term =     188.55632717 Ry

     iteration #  8     ecut=    50.00 Ry     beta= 0.70
     Davidson diagonalization with overlap
     ethr =  1.25E-08,  avg # of iterations =  2.0

     negative rho (up, down):  4.447E-05 0.000E+00

     add environment contribution to local potential
     Polarization accuracy = 5.8E-12, # of iterations =  44

     total cpu time spent up to now is    14926.8 secs

     total energy              =   -3435.04653202 Ry
     estimated scf accuracy    <       0.00005039 Ry
     electrostatic embedding   =      -0.08884895 Ry
     cavitation energy         =       0.02083095 Ry
     PV energy                 =      -0.08089128 Ry
     correction to one-el term =     188.45320878 Ry

     iteration #  9     ecut=    50.00 Ry     beta= 0.70
     Davidson diagonalization with overlap
     ethr =  1.25E-08,  avg # of iterations =  2.0

     negative rho (up, down):  2.029E-05 0.000E+00

     add environment contribution to local potential
     Polarization accuracy = 3.1E-12, # of iterations =  43

     total cpu time spent up to now is    15225.0 secs

     total energy              =   -3435.04654606 Ry
     estimated scf accuracy    <       0.00001427 Ry
     electrostatic embedding   =      -0.08959969 Ry
     cavitation energy         =       0.02083014 Ry
     PV energy                 =      -0.08089021 Ry
     correction to one-el term =     188.36186304 Ry

     iteration # 10     ecut=    50.00 Ry     beta= 0.70
     Davidson diagonalization with overlap
     ethr =  3.90E-09,  avg # of iterations =  3.0

     negative rho (up, down):  1.784E-05 0.000E+00

     add environment contribution to local potential
     Polarization accuracy = 5.1E-12, # of iterations =  43

     total cpu time spent up to now is    15512.6 secs

     total energy              =   -3435.04656307 Ry
     estimated scf accuracy    <       0.00000924 Ry
     electrostatic embedding   =      -0.09084373 Ry
     cavitation energy         =       0.02083185 Ry
     PV energy                 =      -0.08088305 Ry
     correction to one-el term =     188.21421323 Ry

     iteration # 11     ecut=    50.00 Ry     beta= 0.70
     Davidson diagonalization with overlap
     ethr =  2.52E-09,  avg # of iterations =  2.0

     negative rho (up, down):  1.953E-05 0.000E+00

     add environment contribution to local potential
     Polarization accuracy = 4.5E-12, # of iterations =  43

     total cpu time spent up to now is    15824.6 secs

     total energy              =   -3435.04656529 Ry
     estimated scf accuracy    <       0.00000394 Ry
     electrostatic embedding   =      -0.09121222 Ry
     cavitation energy         =       0.02083291 Ry
     PV energy                 =      -0.08087980 Ry
     correction to one-el term =     188.17044433 Ry

     iteration # 12     ecut=    50.00 Ry     beta= 0.70
     Davidson diagonalization with overlap
     ethr =  1.08E-09,  avg # of iterations =  3.0

     negative rho (up, down):  2.685E-05 0.000E+00

     add environment contribution to local potential
     Polarization accuracy = 8.9E-12, # of iterations =  42

     total cpu time spent up to now is    16103.4 secs

     total energy              =   -3435.04656909 Ry
     estimated scf accuracy    <       0.00000220 Ry
     electrostatic embedding   =      -0.09176707 Ry
     cavitation energy         =       0.02083578 Ry
     PV energy                 =      -0.08087152 Ry
     correction to one-el term =     188.11070436 Ry

     iteration # 13     ecut=    50.00 Ry     beta= 0.70
     Davidson diagonalization with overlap
     ethr =  6.02E-10,  avg # of iterations =  2.0

     negative rho (up, down):  3.071E-05 0.000E+00

     add environment contribution to local potential
     Polarization accuracy = 4.5E-12, # of iterations =  43

     total cpu time spent up to now is    16366.3 secs

     total energy              =   -3435.04656980 Ry
     estimated scf accuracy    <       0.00000203 Ry
     electrostatic embedding   =      -0.09189355 Ry
     cavitation energy         =       0.02083645 Ry
     PV energy                 =      -0.08086824 Ry
     correction to one-el term =     188.10173983 Ry

     iteration # 14     ecut=    50.00 Ry     beta= 0.70
     Davidson diagonalization with overlap
     ethr =  5.54E-10,  avg # of iterations =  1.0

     negative rho (up, down):  6.197E-05 0.000E+00

     add environment contribution to local potential
     Polarization accuracy = 4.3E-12, # of iterations =  44

     total cpu time spent up to now is    16642.8 secs

     total energy              =   -3435.04657008 Ry
     estimated scf accuracy    <       0.00000120 Ry
     electrostatic embedding   =      -0.09189634 Ry
     cavitation energy         =       0.02083630 Ry
     PV energy                 =      -0.08086787 Ry
     correction to one-el term =     188.10318315 Ry

     iteration # 15     ecut=    50.00 Ry     beta= 0.70
     Davidson diagonalization with overlap
     ethr =  3.27E-10,  avg # of iterations =  3.0

     negative rho (up, down):  8.465E-05 0.000E+00

     add environment contribution to local potential
     Polarization accuracy = 4.4E-12, # of iterations =  43

     total cpu time spent up to now is    16948.4 secs

     total energy              =   -3435.04656944 Ry
     estimated scf accuracy    <       0.00000072 Ry
     electrostatic embedding   =      -0.09173884 Ry
     cavitation energy         =       0.02083537 Ry
     PV energy                 =      -0.08086713 Ry
     correction to one-el term =     188.13089159 Ry

     iteration # 16     ecut=    50.00 Ry     beta= 0.70
     Davidson diagonalization with overlap
     ethr =  1.97E-10,  avg # of iterations =  2.0

     negative rho (up, down):  1.159E-04 0.000E+00

     add environment contribution to local potential
     Polarization accuracy = 4.2E-12, # of iterations =  43

     total cpu time spent up to now is    17241.4 secs

     total energy              =   -3435.04656895 Ry
     estimated scf accuracy    <       0.00000029 Ry
     electrostatic embedding   =      -0.09168233 Ry
     cavitation energy         =       0.02083462 Ry
     PV energy                 =      -0.08086715 Ry
     correction to one-el term =     188.14136645 Ry

     iteration # 17     ecut=    50.00 Ry     beta= 0.70
     Davidson diagonalization with overlap
     ethr =  7.88E-11,  avg # of iterations =  3.0

     negative rho (up, down):  1.329E-04 0.000E+00

     add environment contribution to local potential
     Polarization accuracy = 9.0E-12, # of iterations =  42

     total cpu time spent up to now is    17540.1 secs

     total energy              =   -3435.04656820 Ry
     estimated scf accuracy    <       0.00000011 Ry
     electrostatic embedding   =      -0.09158903 Ry
     cavitation energy         =       0.02083394 Ry
     PV energy                 =      -0.08086723 Ry
     correction to one-el term =     188.15568086 Ry

[...]
     atom    5 type  2   force =     6.61445575    0.00000000  171.96997815
     atom    6 type  2   force =    -6.19925504   -0.00000000  172.51361399
     atom    7 type  1   force =     0.39418115    0.53232560   62.56694961
     atom    8 type  1   force =    -0.68629909    0.50915299   64.34244815
     atom    9 type  2   force =     1.18478667    0.00000000  168.45763670
     atom   10 type  2   force =    -1.00975960    0.00000000  174.90051812
     atom   11 type  1   force =     0.39418115   -0.53232560   62.56694961
     atom   12 type  1   force =    -0.68629909   -0.50915299   64.34244815
     atom   13 type  1   force =    -0.02583691    0.00000000   40.43120412
     atom   14 type  1   force =    -0.19714342    0.00000000   37.02116909
     atom   15 type  1   force =     0.12852542    0.00000000   25.04991643
     atom   16 type  1   force =    -0.15121348    0.00000000   27.11625159
     atom   17 type  2   force =     0.15613212    0.00000000   -0.00591069
     atom   18 type  2   force =     0.03705432    0.00000000   -0.00583132
     atom   19 type  1   force =     0.15428160   -0.63963176   -0.00246655
     atom   20 type  1   force =    -0.14408093   -0.67335816   -0.00247084
     atom   21 type  2   force =    -1.03663394    0.00000000   -0.00605012
     atom   22 type  2   force =     0.97358438   -0.00000000   -0.00606149
     atom   23 type  1   force =     0.15427994    0.63928353   -0.00246655
     atom   24 type  1   force =    -0.14408248    0.67301041   -0.00247084
     atom   25 type  1   force =     0.12853146   -0.00000000  -25.05168259
     atom   26 type  1   force =    -0.15121241   -0.00000000  -27.11803753
     atom   27 type  1   force =    -0.02584375   -0.00000000  -40.43302542
     atom   28 type  1   force =    -0.19714390    0.00000000  -37.02291143
     atom   29 type  2   force =     6.61449380    0.00000000 -171.97605479
     atom   30 type  2   force =    -6.19928981   -0.00000000 -172.51968278
     atom   31 type  1   force =     0.39420826    0.53234454  -62.56940057
     atom   32 type  1   force =    -0.68632740    0.50916693  -64.34491305
     atom   33 type  2   force =     1.18479847    0.00000000 -168.46347727
     atom   34 type  2   force =    -1.00979156   -0.00000000 -174.90628553
     atom   35 type  1   force =     0.39420826   -0.53234454  -62.56940057
     atom   36 type  1   force =    -0.68632740   -0.50916693  -64.34491305
     atom   37 type  1   force =    -0.03461275    0.00000000  -90.62283834
     atom   38 type  1   force =    -0.14830056    0.00000000  -94.44149259
     atom   39 type  1   force =     1.66546504    0.00000000  -94.78949958
     atom   40 type  1   force =    -0.16914463    0.00000000  -99.82473700
     atom   41 type  3   force =    -2.74663122   -0.00000000   16.22372955
     atom   42 type  3   force =    -2.74663122   -0.00000000  -16.22372955
     atom   43 type  3   force =     0.09278264   -2.14192374   16.94331707
     atom   44 type  3   force =     0.09278264   -2.14192374  -16.94331707
     atom   45 type  3   force =     0.09278264    2.14192374   16.94331707
     atom   46 type  3   force =     0.09278264    2.14192374  -16.94331707
     The core correction contribution to forces
     atom    1 type  1   force =    -0.01726988    0.00000000   -0.00489937
     atom    2 type  1   force =    -0.00008395   -0.00000000   -0.01021054
     atom    3 type  1   force =     0.00058938    0.00000000    0.01357386
     atom    4 type  1   force =     0.00003238   -0.00000000   -0.01233093
     atom    5 type  2   force =     0.00000000    0.00000000    0.00000000
     atom    6 type  2   force =     0.00000000    0.00000000    0.00000000
     atom    7 type  1   force =    -0.00057878    0.00017935    0.00103586
     atom    8 type  1   force =     0.00115506    0.00019180    0.00045587
     atom    9 type  2   force =     0.00000000    0.00000000    0.00000000
     atom   10 type  2   force =     0.00000000    0.00000000    0.00000000
     atom   11 type  1   force =    -0.00057878   -0.00017935    0.00103586
     atom   12 type  1   force =     0.00115507   -0.00019180    0.00045587
     atom   13 type  1   force =     0.00010375   -0.00000000   -0.00159561
     atom   14 type  1   force =     0.00022538    0.00000000    0.00250280
     atom   15 type  1   force =     0.00021456   -0.00000000    0.00062547
     atom   16 type  1   force =     0.00002548    0.00000000   -0.00264356
     atom   17 type  2   force =     0.00000000    0.00000000    0.00000000
     atom   18 type  2   force =     0.00000000    0.00000000    0.00000000
     atom   19 type  1   force =    -0.00038501   -0.00039540   -0.00000208
     atom   20 type  1   force =     0.00014939   -0.00034988   -0.00000209
     atom   21 type  2   force =     0.00000000    0.00000000    0.00000000
     atom   22 type  2   force =     0.00000000    0.00000000    0.00000000
     atom   23 type  1   force =    -0.00038501    0.00039488   -0.00000207
     atom   24 type  1   force =     0.00014939    0.00034938   -0.00000209
     atom   25 type  1   force =     0.00021453    0.00000000   -0.00062770
     atom   26 type  1   force =     0.00002550   -0.00000000    0.00264148
     atom   27 type  1   force =     0.00010375    0.00000000    0.00159332
     atom   28 type  1   force =     0.00022541   -0.00000000   -0.00250517
     atom   29 type  2   force =     0.00000000    0.00000000    0.00000000
     atom   30 type  2   force =     0.00000000    0.00000000    0.00000000
     atom   31 type  1   force =    -0.00057867    0.00017936   -0.00103763
     atom   32 type  1   force =     0.00115493    0.00019188   -0.00045768
     atom   33 type  2   force =     0.00000000    0.00000000    0.00000000
     atom   34 type  2   force =     0.00000000    0.00000000    0.00000000
     atom   35 type  1   force =    -0.00057867   -0.00017936   -0.00103763
     atom   36 type  1   force =     0.00115493   -0.00019188   -0.00045768
     atom   37 type  1   force =     0.00058941   -0.00000000   -0.01357750
     atom   38 type  1   force =     0.00003230    0.00000000    0.01232721
     atom   39 type  1   force =    -0.01727065   -0.00000000    0.00489704
     atom   40 type  1   force =    -0.00008409   -0.00000000    0.01020860
     atom   41 type  3   force =     0.00000000    0.00000000    0.00000000
     atom   42 type  3   force =     0.00000000    0.00000000    0.00000000
     atom   43 type  3   force =     0.00000000    0.00000000    0.00000000
     atom   44 type  3   force =     0.00000000    0.00000000    0.00000000
     atom   45 type  3   force =     0.00000000    0.00000000    0.00000000
     atom   46 type  3   force =     0.00000000    0.00000000    0.00000000
     The Hubbard contrib.    to forces
     atom    1 type  1   force =     0.00000000    0.00000000    0.00000000
     atom    2 type  1   force =     0.00000000    0.00000000    0.00000000
     atom    3 type  1   force =     0.00000000    0.00000000    0.00000000
     atom    4 type  1   force =     0.00000000    0.00000000    0.00000000
     atom    5 type  2   force =     0.00000000    0.00000000    0.00000000
     atom    6 type  2   force =     0.00000000    0.00000000    0.00000000
     atom    7 type  1   force =     0.00000000    0.00000000    0.00000000
     atom    8 type  1   force =     0.00000000    0.00000000    0.00000000
     atom    9 type  2   force =     0.00000000    0.00000000    0.00000000
     atom   10 type  2   force =     0.00000000    0.00000000    0.00000000
     atom   11 type  1   force =     0.00000000    0.00000000    0.00000000
     atom   12 type  1   force =     0.00000000    0.00000000    0.00000000
     atom   13 type  1   force =     0.00000000    0.00000000    0.00000000
     atom   14 type  1   force =     0.00000000    0.00000000    0.00000000
     atom   15 type  1   force =     0.00000000    0.00000000    0.00000000
     atom   16 type  1   force =     0.00000000    0.00000000    0.00000000
     atom   17 type  2   force =     0.00000000    0.00000000    0.00000000
     atom   18 type  2   force =     0.00000000    0.00000000    0.00000000
     atom   19 type  1   force =     0.00000000    0.00000000    0.00000000
     atom   20 type  1   force =     0.00000000    0.00000000    0.00000000
     atom   21 type  2   force =     0.00000000    0.00000000    0.00000000
     atom   22 type  2   force =     0.00000000    0.00000000    0.00000000
     atom   23 type  1   force =     0.00000000    0.00000000    0.00000000
     atom   24 type  1   force =     0.00000000    0.00000000    0.00000000
     atom   25 type  1   force =     0.00000000    0.00000000    0.00000000
     atom   26 type  1   force =     0.00000000    0.00000000    0.00000000
     atom   27 type  1   force =     0.00000000    0.00000000    0.00000000
     atom   28 type  1   force =     0.00000000    0.00000000    0.00000000
     atom   29 type  2   force =     0.00000000    0.00000000    0.00000000
     atom   30 type  2   force =     0.00000000    0.00000000    0.00000000
     atom   31 type  1   force =     0.00000000    0.00000000    0.00000000
     atom   32 type  1   force =     0.00000000    0.00000000    0.00000000
     atom   33 type  2   force =     0.00000000    0.00000000    0.00000000
     atom   34 type  2   force =     0.00000000    0.00000000    0.00000000
     atom   35 type  1   force =     0.00000000    0.00000000    0.00000000
     atom   36 type  1   force =     0.00000000    0.00000000    0.00000000
     atom   37 type  1   force =     0.00000000    0.00000000    0.00000000
     atom   38 type  1   force =     0.00000000    0.00000000    0.00000000
     atom   39 type  1   force =     0.00000000    0.00000000    0.00000000
     atom   40 type  1   force =     0.00000000    0.00000000    0.00000000
     atom   41 type  3   force =     0.00000000    0.00000000    0.00000000
     atom   42 type  3   force =     0.00000000    0.00000000    0.00000000
     atom   43 type  3   force =     0.00000000    0.00000000    0.00000000
     atom   44 type  3   force =     0.00000000    0.00000000    0.00000000
     atom   45 type  3   force =     0.00000000    0.00000000    0.00000000
     atom   46 type  3   force =     0.00000000    0.00000000    0.00000000
     The SCF correction term to forces
     atom    1 type  1   force =     0.00000016   -0.00000000   -0.00000180
     atom    2 type  1   force =     0.00000008    0.00000000   -0.00000169
     atom    3 type  1   force =     0.00000006   -0.00000000   -0.00000181
     atom    4 type  1   force =     0.00000008    0.00000000   -0.00000225
     atom    5 type  2   force =     0.00000009   -0.00000000   -0.00000682
     atom    6 type  2   force =     0.00000027   -0.00000000   -0.00000671
     atom    7 type  1   force =     0.00000019   -0.00000022   -0.00000255
     atom    8 type  1   force =    -0.00000027   -0.00000027   -0.00000258
     atom    9 type  2   force =    -0.00000020    0.00000000   -0.00000688
     atom   10 type  2   force =     0.00000030    0.00000000   -0.00000748
     atom   11 type  1   force =     0.00000019    0.00000022   -0.00000255
     atom   12 type  1   force =    -0.00000027    0.00000027   -0.00000258
     atom   13 type  1   force =    -0.00000040   -0.00000000   -0.00000236
     atom   14 type  1   force =     0.00000013   -0.00000000   -0.00000218
     atom   15 type  1   force =     0.00000019    0.00000000   -0.00000203
     atom   16 type  1   force =     0.00000004    0.00000000   -0.00000228
     atom   17 type  2   force =    -0.00000025   -0.00000000    0.00000001
     atom   18 type  2   force =     0.00000023   -0.00000000    0.00000001
     atom   19 type  1   force =    -0.00000011   -0.00000085    0.00000000
     atom   20 type  1   force =     0.00000010   -0.00000114    0.00000000
     atom   21 type  2   force =    -0.00000004    0.00000000    0.00000001
     atom   22 type  2   force =    -0.00000062    0.00000000    0.00000000
     atom   23 type  1   force =    -0.00000011    0.00000085    0.00000000
     atom   24 type  1   force =     0.00000010    0.00000114    0.00000000
     atom   25 type  1   force =     0.00000019    0.00000000    0.00000203
     atom   26 type  1   force =     0.00000004    0.00000000    0.00000228
     atom   27 type  1   force =    -0.00000040   -0.00000000    0.00000236
     atom   28 type  1   force =     0.00000013   -0.00000000    0.00000219
     atom   29 type  2   force =     0.00000009   -0.00000000    0.00000681
     atom   30 type  2   force =     0.00000026   -0.00000000    0.00000669
     atom   31 type  1   force =     0.00000019   -0.00000022    0.00000255
     atom   32 type  1   force =    -0.00000027   -0.00000027    0.00000257
     atom   33 type  2   force =    -0.00000020    0.00000000    0.00000687
     atom   34 type  2   force =     0.00000030    0.00000000    0.00000747
     atom   35 type  1   force =     0.00000019    0.00000022    0.00000255
     atom   36 type  1   force =    -0.00000027    0.00000027    0.00000257
     atom   37 type  1   force =     0.00000006   -0.00000000    0.00000181
     atom   38 type  1   force =     0.00000008   -0.00000000    0.00000225
     atom   39 type  1   force =     0.00000016   -0.00000000    0.00000179
     atom   40 type  1   force =     0.00000008   -0.00000000    0.00000169
     atom   41 type  3   force =     0.00000004   -0.00000000   -0.00000026
     atom   42 type  3   force =     0.00000004   -0.00000000    0.00000026
     atom   43 type  3   force =     0.00000001   -0.00000005   -0.00000024
     atom   44 type  3   force =     0.00000001   -0.00000005    0.00000024
     atom   45 type  3   force =     0.00000001    0.00000005   -0.00000024
     atom   46 type  3   force =     0.00000001    0.00000005    0.00000024

     Total force =     0.000348     Total SCF correction =     0.000023
     Energy error            =      4.9E-07 Ry
     Gradient error          =      8.8E-05 Ry/Bohr

     bfgs converged in  32 scf cycles and  31 bfgs steps
     (criteria: energy <  1.0E-04 Ry, force <  1.0E-04 Ry/Bohr)

     End of BFGS Geometry Optimization

     Final energy             =   -3435.0755425622 Ry

     File /storage/home/mgm6007/ixd4/Maria/StrainJin_Files/RuO2-110-0-024/RuO2-110-0-024.bfgs deleted, as requested
Begin final coordinates

ATOMIC_POSITIONS (crystal)
O             0.0104501428        0.5000000000        0.2683909874
O             0.4826294611        0.5000000000        0.2723915333
O            -0.0030164934        0.0000000000        0.2906571741
O             0.4977050398        0.0000000000        0.3063621781
Ru            0.2628519723        0.0000000000        0.3579588432
Ru            0.7349530565        0.0000000000        0.3574243831
O             0.2466214526        0.3111216139        0.3591400517
O             0.7528825804        0.3124779778        0.3568867540
Ru            0.0010310562        0.5000000000        0.3589869714
Ru            0.5014590327        0.5000000000        0.3508600036
O             0.2466214526        0.6888783861        0.3591400517
O             0.7528825804        0.6875220222        0.3568867540
O            -0.0035437943        0.0000000000        0.4107043280
O             0.4991558994        0.0000000000        0.4118247825
O            -0.0005878138        0.5000000000        0.4467502364
O             0.4996493112        0.5000000000        0.4431230274
Ru           -0.0025223768        0.0000000000        0.5000010000
Ru            0.4977454215        0.0000000000        0.5000010000
O             0.2465420306        0.1863158583        0.5000010000
O             0.7476331363        0.1865016064        0.5000010000
Ru            0.2531411483        0.5000000000        0.5000010000
Ru            0.7474332334        0.5000000000        0.5000010000
O             0.2465420306        0.8136851417        0.5000010000
O             0.7476331363        0.8134993936        0.5000010000
O            -0.0005878138        0.5000000000        0.5532507636
O             0.4996493112        0.5000000000        0.5568779726
O            -0.0035437943        0.0000000000        0.5892966720
O             0.4991558994        0.0000000000        0.5881762175
Ru            0.2628519723        0.0000000000        0.6420421568
Ru            0.7349530565        0.0000000000        0.6425766169
O             0.2466214526        0.3111216139        0.6408609483
O             0.7528825804        0.3124779778        0.6431142460
Ru            0.0010310562        0.5000000000        0.6410140286
Ru            0.5014590327        0.5000000000        0.6491409964
O             0.2466214526        0.6888783861        0.6408609483
O             0.7528825804        0.6875220222        0.6431142460
O            -0.0030164934        0.0000000000        0.7093448259
O             0.4977050398        0.0000000000        0.6936398219
O             0.0104501428        0.5000000000        0.7316100126
O             0.4826294611        0.5000000000        0.7276094667
H             0.1542712012        0.5000000000        0.2559763774
H             0.1542712012        0.5000000000        0.7440236226
H            -0.0052275087        0.1351007690        0.2643313171
H            -0.0052275087        0.1351007690        0.7356686829
H            -0.0052275087        0.8648992310        0.2643313171
H            -0.0052275087        0.8648992310        0.7356686829
End final coordinates



     Writing all to output data dir /storage/home/mgm6007/ixd4/Maria/StrainJin_Files/RuO2-110-0-024/RuO2-110-0-024.save/
 
     init_run     :    388.65s CPU   1095.57s WALL (       1 calls)
     electrons    :  41760.04s CPU 104606.74s WALL (      32 calls)
     update_pot   :     52.39s CPU     52.43s WALL (      31 calls)
     forces       :     48.90s CPU     49.38s WALL (      32 calls)

     Called by init_run:
     wfcinit      :      0.48s CPU      0.49s WALL (       1 calls)
     potinit      :    272.08s CPU    783.22s WALL (       1 calls)
     hinit0       :    115.65s CPU    311.35s WALL (       1 calls)

     Called by electrons:
     c_bands      :    757.01s CPU    758.34s WALL (     614 calls)
     sum_band     :    157.82s CPU    158.24s WALL (     614 calls)
     v_of_rho     :     61.58s CPU     61.79s WALL (     620 calls)
     newd         :     43.65s CPU     43.77s WALL (     620 calls)
     PAW_pot      :     75.21s CPU     75.28s WALL (     651 calls)
     mix_rho      :    418.73s CPU    419.07s WALL (     614 calls)

     Called by c_bands:
     init_us_2    :      8.39s CPU      8.43s WALL (    1260 calls)
     init_us_2:cp :      8.39s CPU      8.43s WALL (    1260 calls)
     cegterg      :    728.82s CPU    730.01s WALL (     614 calls)

     Called by *egterg:
     cdiaghg      :     90.61s CPU     90.69s WALL (    1848 calls)
     h_psi        :    370.96s CPU    371.67s WALL (    1906 calls)
     s_psi        :     57.08s CPU     57.15s WALL (    1906 calls)
     g_psi        :      1.88s CPU      1.89s WALL (    1291 calls)

     Called by h_psi:
     h_psi:calbec :     57.23s CPU     57.28s WALL (    1906 calls)
     vloc_psi     :    251.87s CPU    252.45s WALL (    1906 calls)
     add_vuspsi   :     57.51s CPU     57.59s WALL (    1906 calls)

     General routines
     calbec       :     89.82s CPU     89.96s WALL (    2679 calls)
     fft          :   9906.48s CPU   9908.52s WALL (    8405 calls)
     ffts         :    154.96s CPU    155.00s WALL (  242540 calls)
     fftw         :    229.72s CPU    230.25s WALL (  714028 calls)
     interpolate  :   9860.48s CPU   9862.50s WALL (     620 calls)
 
     Parallel routines
 
     Environ routines
 
     PWSCF        :     12h16m CPU   1d 6h49m WALL

 
   This run was terminated on:  18: 8:51  27Jul2023            

=------------------------------------------------------------------------------=
   JOB DONE.
=------------------------------------------------------------------------------=
