
     Program PWSCF v.7.2 starts on 21Jul2023 at 17: 3: 5 
        Git branch: heads/qe-7.2
        Last git commit: b4c5e8deeb7d1863e7553a87b45f8d22c21926a5
        Last git commit date: Mon Mar 27 16:12:09 2023 +0000
        Last git commit subject: Merge branch 'merge_fix_hubbard' into 'develop'

     This program is part of the open-source Quantum ESPRESSO suite
     for quantum simulation of materials; please cite
         "P. Giannozzi et al., J. Phys.:Condens. Matter 21 395502 (2009);
         "P. Giannozzi et al., J. Phys.:Condens. Matter 29 465901 (2017);
         "P. Giannozzi et al., J. Chem. Phys. 152 154105 (2020);
          URL http://www.quantum-espresso.org", 
     in publications or presentations arising from this work. More details at
     http://www.quantum-espresso.org/quote

     Parallel version (MPI), running on    20 processors

     MPI processes distributed on     1 nodes
     105621 MiB available memory on the printing compute node when the environment starts
 
     Reading input from RuO2-110-0-012.in

     Current dimensions of program PWSCF are:
     Max number of different atomic species (ntypx) = 10
     Max number of k-points (npk) =  40000
     Max angular momentum in pseudopotentials (lmaxx) =  4
 
     Reading input from environ.in:
     * Environ restarting
     * setting up water environment
     * using electronic solvent mode
     * setting boundary derivatives method to SCCS default
     

     File /storage/home/mgm6007/ixd4/Maria/Strain2_Files/RuO2-110-0-012/RuO2-110-0-012.update deleted, as requested

     File /storage/home/mgm6007/ixd4/Maria/Strain2_Files/RuO2-110-0-012/RuO2-110-0-012.bfgs deleted, as requested
     file O.pbe-n-kjpaw_psl.0.1.UPF: wavefunction(s)  2P renormalized
     Message from routine setup:
     using ibrav=0 with symmetry is DISCOURAGED, use correct ibrav instead
 
     R & G space division:  proc/nbgrp/npool/nimage =      20
     Subspace diagonalization in iterative solution of the eigenvalue problem:
     one sub-group per band group will be used
     scalapack distributed-memory algorithm (size of sub-group:  2*  2 procs)

 
     Parallelization info
     --------------------
     sticks:   dense  smooth     PW     G-vecs:    dense   smooth      PW
     Min         279     111     29                55537    14039    1893
     Max         280     112     30                55546    14052    1904
     Sum        5595    2237    595              1110843   280917   37967
 
     Using Slab Decomposition
 


     bravais-lattice index     =            0
     lattice parameter (alat)  =      12.2467  a.u.
     unit-cell volume          =    5883.2137 (a.u.)^3
     number of atoms/cell      =           46
     number of atomic types    =            3
     number of electrons       =       366.00
     number of Kohn-Sham states=          220
     kinetic-energy cutoff     =      50.0000  Ry
     charge density cutoff     =     500.0000  Ry
     scf convergence threshold =      1.0E-09
     mixing beta               =       0.7000
     number of iterations used =            8  local-TF  mixing
     energy convergence thresh.=      1.0E-04
     force convergence thresh. =      1.0E-04
     Exchange-correlation= PBE
                           (   1   4   3   4   0   0   0)
     nstep                     =          200


     ================================================================================
 
                                  Environ Setup Summary

     ================================================================================
 
     Please cite

          O. Andreussi, I. Dabo and N. Marzari, J. Chem. Phys. 136, 064102 (2012)

     in publications or presentations arising from this work.

     ================================================================================
 
     Parameters
     ==========

     compensation onset threshold      =               0.1000E+00
     static permittivity               =                    78.30
     surface tension in input (dyn/cm) =                    47.90
     surface tension in internal units =               0.6153E-04
     external pressure in input (GPa)  =                    -0.36
     external pressure in inter. units =              -0.2447E-04

     Solvent Boundary
     ================

     solvent mode                      =               electronic
     derivatives method                =                    chain
     numerical core for derivatives    =                      fft
     switching function adopted        =                     SCCS
     density limit for vacuum region   =               0.5000E-02
     density limit for bulk solvent    =               0.1000E-03

     Electrostatic Setup
     ===================

     electrostatic problem to solve    =              generalized
     numerical solver adopted          =                       cg
     type of auxiliary density adopted =                     none
     numerical core for poisson        =                      fft
     type of pbc corrections           =                parabolic
     numerical core for corrections    =                      1da

     ================================================================================
 

     celldm(1)=  12.246684  celldm(2)=   0.000000  celldm(3)=   0.000000
     celldm(4)=   0.000000  celldm(5)=   0.000000  celldm(6)=   0.000000

     crystal axes: (cart. coord. in units of alat)
               a(1) = (   1.000000   0.000000   0.000000 )  
               a(2) = (   0.000000   0.937861   0.000000 )  
               a(3) = (   0.000000   0.000000   3.415235 )  

     reciprocal axes: (cart. coord. in units 2 pi/alat)
               b(1) = (  1.000000  0.000000  0.000000 )  
               b(2) = (  0.000000  1.066256  0.000000 )  
               b(3) = (  0.000000  0.000000  0.292806 )  


     PseudoPot. # 1 for O  read from file:
     /gpfs/group/ixd4/default/Simon/pseudopotentials/materialscloud/SSSP_1.3.0_PBE_efficiency/O.pbe-n-kjpaw_psl.0.1.UPF
     MD5 check sum: 0234752ac141de4415c5fc33072bef88
     Pseudo is Projector augmented-wave + core cor, Zval =  6.0
     Generated using "atomic" code by A. Dal Corso  v.5.0.99 svn rev. 10869
     Shape of augmentation charge: BESSEL
     Using radial grid of 1095 points,  4 beta functions with: 
                l(1) =   0
                l(2) =   0
                l(3) =   1
                l(4) =   1
     Q(r) pseudized with 0 coefficients 


     PseudoPot. # 2 for Ru read from file:
     /gpfs/group/ixd4/default/Simon/pseudopotentials/materialscloud/SSSP_1.3.0_PBE_efficiency/Ru_ONCV_PBE-1.0.oncvpsp.upf
     MD5 check sum: be037bb81c227cfb9b1461a9f099f4bd
     Pseudo is Norm-conserving, Zval = 16.0
     Generated using ONCVPSP code by D. R. Hamann
     Using radial grid of 1458 points,  6 beta functions with: 
                l(1) =   0
                l(2) =   0
                l(3) =   1
                l(4) =   1
                l(5) =   2
                l(6) =   2

     PseudoPot. # 3 for H  read from file:
     /gpfs/group/ixd4/default/Simon/pseudopotentials/materialscloud/SSSP_1.3.0_PBE_efficiency/H.pbe-rrkjus_psl.1.0.0.UPF
     MD5 check sum: f52b6d4d1c606e5624b1dc7b2218f220
     Pseudo is Ultrasoft, Zval =  1.0
     Generated using "atomic" code by A. Dal Corso  v.5.1
     Using radial grid of  929 points,  2 beta functions with: 
                l(1) =   0
                l(2) =   0
     Q(r) pseudized with 0 coefficients 


     atomic species   valence    mass     pseudopotential
        O              6.00    15.99940     O ( 1.00)
        Ru            16.00   101.07000     Ru( 1.00)
        H              1.00     1.00794     H ( 1.00)

      2 Sym. Ops. (no inversion) found



   Cartesian axes

     site n.     atom                  positions (alat units)
         1           O   tau(   1) = (  -0.0098827   0.4449149   0.9207504  )
         2           O   tau(   2) = (   0.4898567   0.4707076   0.9210400  )
         3           O   tau(   3) = (  -0.0002172   0.0022395   1.0196088  )
         4           O   tau(   4) = (   0.4991948  -0.0001293   1.0526027  )
         5           Ru  tau(   5) = (   0.2552957   0.0004621   1.2155201  )
         6           Ru  tau(   6) = (   0.7436169   0.0008145   1.2153101  )
         7           O   tau(   7) = (   0.2495923   0.2931612   1.2245252  )
         8           O   tau(   8) = (   0.7486001   0.2931902   1.2218508  )
         9           Ru  tau(   9) = (  -0.0009428   0.4686177   1.2222060  )
        10           Ru  tau(  10) = (   0.4995732   0.4698456   1.2181996  )
        11           O   tau(  11) = (   0.2461212   0.6452268   1.2163543  )
        12           O   tau(  12) = (   0.7517338   0.6451986   1.2186383  )
        13           O   tau(  13) = (  -0.0002349  -0.0000914   1.4056303  )
        14           O   tau(  14) = (   0.5001746  -0.0019967   1.4051226  )
        15           O   tau(  15) = (   0.0021288   0.4698774   1.5223633  )
        16           O   tau(  16) = (   0.5020543   0.4709896   1.5187816  )
        17           Ru  tau(  17) = (   0.0012024   0.0003504   1.7076210  )
        18           Ru  tau(  18) = (   0.5014194   0.0005845   1.7076210  )
        19           O   tau(  19) = (   0.2511123   0.1771539   1.7076210  )
        20           O   tau(  20) = (   0.7516180   0.1770683   1.7076210  )
        21           Ru  tau(  21) = (   0.2523955   0.4695534   1.7076210  )
        22           Ru  tau(  22) = (   0.7501123   0.4696872   1.7076210  )
        23           O   tau(  23) = (   0.2507765   0.7621278   1.7076210  )
        24           O   tau(  24) = (   0.7521923   0.7619875   1.7076210  )
        25           O   tau(  25) = (   0.0021288   0.4698774   1.8928753  )
        26           O   tau(  26) = (   0.5020543   0.4709896   1.8964570  )
        27           O   tau(  27) = (  -0.0002349  -0.0000914   2.0096083  )
        28           O   tau(  28) = (   0.5001746  -0.0019967   2.0101161  )
        29           Ru  tau(  29) = (   0.2552957   0.0004621   2.1997186  )
        30           Ru  tau(  30) = (   0.7436169   0.0008145   2.1999285  )
        31           O   tau(  31) = (   0.2495923   0.2931612   2.1907135  )
        32           O   tau(  32) = (   0.7486001   0.2931902   2.1933878  )
        33           Ru  tau(  33) = (  -0.0009428   0.4686177   2.1930326  )
        34           Ru  tau(  34) = (   0.4995732   0.4698456   2.1970390  )
        35           O   tau(  35) = (   0.2461212   0.6452268   2.1988843  )
        36           O   tau(  36) = (   0.7517338   0.6451986   2.1966003  )
        37           O   tau(  37) = (  -0.0002172   0.0022395   2.3956333  )
        38           O   tau(  38) = (   0.4991948  -0.0001293   2.3626394  )
        39           O   tau(  39) = (  -0.0098827   0.4449149   2.4944882  )
        40           O   tau(  40) = (   0.4898567   0.4707076   2.4941986  )
        41           H   tau(  41) = (   0.1259090   0.4735815   0.8608544  )
        42           H   tau(  42) = (   0.1259090   0.4735815   2.5543808  )
        43           H   tau(  43) = (   0.6277456   0.4670328   0.8589336  )
        44           H   tau(  44) = (   0.6277456   0.4670328   2.5563016  )
        45           H   tau(  45) = (  -0.0004638   0.1181771   0.9210838  )
        46           H   tau(  46) = (  -0.0004638   0.1181771   2.4941514  )

     number of k points=     2  Marzari-Vanderbilt smearing, width (Ry)=  0.0300
                       cart. coord. in units 2pi/alat
        k(    1) = (   0.2500000   0.2665641   0.0000000), wk =   1.0000000
        k(    2) = (  -0.2500000   0.2665641   0.0000000), wk =   1.0000000

     Dense  grid:  1110843 G-vectors     FFT dimensions: (  90,  81, 300)

     Smooth grid:   280917 G-vectors     FFT dimensions: (  60,  54, 192)

     Estimated max dynamical RAM per process >     182.03 MB

     Estimated total dynamical RAM >       3.56 GB

     Check: negative core charge=   -0.000001

     Initial potential from superposition of free atoms

     starting charge     365.9933, renormalised to     366.0000

     add environment contribution to local potential
     Polarization accuracy = 5.4E-12, # of iterations =  24

     negative rho (up, down):  2.782E-05 0.000E+00
     Starting wfcs are  238 randomized atomic wfcs
     Checking if some PAW data can be deallocated... 

     total cpu time spent up to now is      541.4 secs

     per-process dynamical memory:   151.1 Mb

     Self-consistent Calculation

     iteration #  1     ecut=    50.00 Ry     beta= 0.70
     Davidson diagonalization with overlap
     ethr =  1.00E-02,  avg # of iterations =  2.0

     negative rho (up, down):  3.069E-08 0.000E+00

     total cpu time spent up to now is      690.7 secs

     total energy              =   -3432.92246552 Ry
     estimated scf accuracy    <       9.45471824 Ry
     electrostatic embedding   =      -0.00185132 Ry
     cavitation energy         =       0.01980192 Ry
     PV energy                 =      -0.08523824 Ry
     correction to one-el term =     218.48508571 Ry

     iteration #  2     ecut=    50.00 Ry     beta= 0.70
     Davidson diagonalization with overlap
     ethr =  2.58E-03,  avg # of iterations =  2.0

     total cpu time spent up to now is      827.4 secs

     total energy              =   -3435.07137062 Ry
     estimated scf accuracy    <       1.73922440 Ry
     electrostatic embedding   =      -0.00272087 Ry
     cavitation energy         =       0.01973158 Ry
     PV energy                 =      -0.08573192 Ry
     correction to one-el term =     218.48774601 Ry

     iteration #  3     ecut=    50.00 Ry     beta= 0.70
     Davidson diagonalization with overlap
     ethr =  4.75E-04,  avg # of iterations =  1.0

     total cpu time spent up to now is      987.4 secs

     total energy              =   -3435.26319308 Ry
     estimated scf accuracy    <       0.24845452 Ry
     electrostatic embedding   =      -0.00299602 Ry
     cavitation energy         =       0.01977514 Ry
     PV energy                 =      -0.08554339 Ry
     correction to one-el term =     218.48837900 Ry

     iteration #  4     ecut=    50.00 Ry     beta= 0.70
     Davidson diagonalization with overlap
     ethr =  6.79E-05,  avg # of iterations =  1.0

     total cpu time spent up to now is     1116.0 secs

     total energy              =   -3435.26596799 Ry
     estimated scf accuracy    <       0.11219439 Ry
     electrostatic embedding   =      -0.00309089 Ry
     cavitation energy         =       0.01991648 Ry
     PV energy                 =      -0.08495922 Ry
     correction to one-el term =     218.48836166 Ry

     iteration #  5     ecut=    50.00 Ry     beta= 0.70
     Davidson diagonalization with overlap
     ethr =  3.07E-05,  avg # of iterations =  1.0

     total cpu time spent up to now is     1244.0 secs

     total energy              =   -3435.26826757 Ry
     estimated scf accuracy    <       0.13444533 Ry
     electrostatic embedding   =      -0.00312378 Ry
     cavitation energy         =       0.02035149 Ry
     PV energy                 =      -0.08376740 Ry
     correction to one-el term =     218.48796179 Ry

     iteration #  6     ecut=    50.00 Ry     beta= 0.70
     Davidson diagonalization with overlap
     ethr =  3.07E-05,  avg # of iterations =  1.0

     add environment contribution to local potential
     Polarization accuracy = 7.1E-12, # of iterations =  35

     total cpu time spent up to now is     1389.7 secs

     total energy              =   -3435.26716203 Ry
     estimated scf accuracy    <       0.06252482 Ry
     electrostatic embedding   =      -0.00308915 Ry
     cavitation energy         =       0.02059229 Ry
     PV energy                 =      -0.08317512 Ry
     correction to one-el term =     218.48764484 Ry

     iteration #  7     ecut=    50.00 Ry     beta= 0.70
     Davidson diagonalization with overlap
     ethr =  1.71E-05,  avg # of iterations = 12.0

     add environment contribution to local potential
     Polarization accuracy = 9.2E-12, # of iterations =  37

     total cpu time spent up to now is     1541.8 secs

     total energy              =   -3435.28340760 Ry
     estimated scf accuracy    <       0.04274755 Ry
     electrostatic embedding   =      -0.02804928 Ry
     cavitation energy         =       0.02077734 Ry
     PV energy                 =      -0.08268805 Ry
     correction to one-el term =     191.48495388 Ry

     iteration #  8     ecut=    50.00 Ry     beta= 0.70
     Davidson diagonalization with overlap
     ethr =  1.17E-05,  avg # of iterations =  1.0

     add environment contribution to local potential
     Polarization accuracy = 3.4E-12, # of iterations =  43

     total cpu time spent up to now is     1665.2 secs

     total energy              =   -3435.28158340 Ry
     estimated scf accuracy    <       0.04247603 Ry
     electrostatic embedding   =      -0.03011013 Ry
     cavitation energy         =       0.02093353 Ry
     PV energy                 =      -0.08231654 Ry
     correction to one-el term =     190.36384299 Ry

     iteration #  9     ecut=    50.00 Ry     beta= 0.70
     Davidson diagonalization with overlap
     ethr =  1.16E-05,  avg # of iterations =  6.0

     negative rho (up, down):  4.761E-08 0.000E+00

     add environment contribution to local potential
     Polarization accuracy = 8.5E-12, # of iterations =  49

     total cpu time spent up to now is     1810.9 secs

     total energy              =   -3435.28034755 Ry
     estimated scf accuracy    <       0.04830119 Ry
     electrostatic embedding   =      -0.03567639 Ry
     cavitation energy         =       0.02126072 Ry
     PV energy                 =      -0.08160617 Ry
     correction to one-el term =     188.19825844 Ry

     iteration # 10     ecut=    50.00 Ry     beta= 0.70
     Davidson diagonalization with overlap
     ethr =  1.16E-05,  avg # of iterations = 12.0

     add environment contribution to local potential
     Polarization accuracy = 6.0E-12, # of iterations =  48

     total cpu time spent up to now is     1944.2 secs

     total energy              =   -3435.27922716 Ry
     estimated scf accuracy    <       0.05202866 Ry
     electrostatic embedding   =      -0.04500445 Ry
     cavitation energy         =       0.02163100 Ry
     PV energy                 =      -0.08079413 Ry
     correction to one-el term =     186.13351067 Ry

     iteration # 11     ecut=    50.00 Ry     beta= 0.70
     Davidson diagonalization with overlap
     ethr =  1.16E-05,  avg # of iterations =  1.0

     negative rho (up, down):  2.807E-05 0.000E+00

     add environment contribution to local potential
     Polarization accuracy = 4.3E-12, # of iterations =  48

     total cpu time spent up to now is     2103.2 secs

     total energy              =   -3435.28059536 Ry
     estimated scf accuracy    <       0.01712949 Ry
     electrostatic embedding   =      -0.04155868 Ry
     cavitation energy         =       0.02141770 Ry
     PV energy                 =      -0.08095325 Ry
     correction to one-el term =     187.34579590 Ry

     iteration # 12     ecut=    50.00 Ry     beta= 0.70
     Davidson diagonalization with overlap
     ethr =  4.68E-06,  avg # of iterations =  5.0

     negative rho (up, down):  3.125E-05 0.000E+00

     add environment contribution to local potential
     Polarization accuracy = 7.7E-12, # of iterations =  47

     total cpu time spent up to now is     2258.6 secs

     total energy              =   -3435.28148576 Ry
     estimated scf accuracy    <       0.00707054 Ry
     electrostatic embedding   =      -0.03995817 Ry
     cavitation energy         =       0.02130290 Ry
     PV energy                 =      -0.08100270 Ry
     correction to one-el term =     188.26222056 Ry

     iteration # 13     ecut=    50.00 Ry     beta= 0.70
     Davidson diagonalization with overlap
     ethr =  1.93E-06,  avg # of iterations =  7.0

     negative rho (up, down):  1.787E-06 0.000E+00

     add environment contribution to local potential
     Polarization accuracy = 6.7E-12, # of iterations =  45

     total cpu time spent up to now is     2397.5 secs

     total energy              =   -3435.28250227 Ry
     estimated scf accuracy    <       0.00396314 Ry
     electrostatic embedding   =      -0.03686312 Ry
     cavitation energy         =       0.02115103 Ry
     PV energy                 =      -0.08113466 Ry
     correction to one-el term =     189.71713419 Ry

     iteration # 14     ecut=    50.00 Ry     beta= 0.70
     Davidson diagonalization with overlap
     ethr =  1.08E-06,  avg # of iterations =  7.0

     negative rho (up, down):  1.133E-08 0.000E+00

     add environment contribution to local potential
     Polarization accuracy = 8.0E-12, # of iterations =  44

     total cpu time spent up to now is     2551.8 secs

     total energy              =   -3435.28319660 Ry
     estimated scf accuracy    <       0.00224193 Ry
     electrostatic embedding   =      -0.03335169 Ry
     cavitation energy         =       0.02100338 Ry
     PV energy                 =      -0.08132495 Ry
     correction to one-el term =     191.23629690 Ry

     iteration # 15     ecut=    50.00 Ry     beta= 0.70
     Davidson diagonalization with overlap
     ethr =  6.13E-07,  avg # of iterations =  7.0

     negative rho (up, down):  1.184E-05 0.000E+00

     add environment contribution to local potential
     Polarization accuracy = 5.0E-12, # of iterations =  44

     total cpu time spent up to now is     2703.0 secs

     total energy              =   -3435.28351164 Ry
     estimated scf accuracy    <       0.00068859 Ry
     electrostatic embedding   =      -0.03179562 Ry
     cavitation energy         =       0.02097979 Ry
     PV energy                 =      -0.08138309 Ry
     correction to one-el term =     191.80894595 Ry

     iteration # 16     ecut=    50.00 Ry     beta= 0.70
     Davidson diagonalization with overlap
     ethr =  1.88E-07,  avg # of iterations = 17.0

     negative rho (up, down):  3.901E-05 0.000E+00

     add environment contribution to local potential
     Polarization accuracy = 4.8E-12, # of iterations =  44

     total cpu time spent up to now is     2851.0 secs

     total energy              =   -3435.28374990 Ry
     estimated scf accuracy    <       0.00021836 Ry
     electrostatic embedding   =      -0.02966878 Ry
     cavitation energy         =       0.02091447 Ry
     PV energy                 =      -0.08148499 Ry
     correction to one-el term =     192.79232467 Ry

     iteration # 17     ecut=    50.00 Ry     beta= 0.70
     Davidson diagonalization with overlap
     ethr =  5.97E-08,  avg # of iterations =  7.0

     negative rho (up, down):  3.555E-06 0.000E+00

     add environment contribution to local potential
     Polarization accuracy = 4.3E-12, # of iterations =  44

     total cpu time spent up to now is     2992.8 secs

     total energy              =   -3435.28377356 Ry
     estimated scf accuracy    <       0.00004621 Ry
     electrostatic embedding   =      -0.02908737 Ry
     cavitation energy         =       0.02093487 Ry
     PV energy                 =      -0.08148819 Ry
     correction to one-el term =     193.03664418 Ry

     iteration # 18     ecut=    50.00 Ry     beta= 0.70
     Davidson diagonalization with overlap
     ethr =  1.26E-08,  avg # of iterations =  2.0

     negative rho (up, down):  1.903E-05 0.000E+00

     add environment contribution to local potential
     Polarization accuracy = 4.0E-12, # of iterations =  44

     total cpu time spent up to now is     3130.2 secs

     total energy              =   -3435.28378412 Ry
     estimated scf accuracy    <       0.00002702 Ry
     electrostatic embedding   =      -0.02913933 Ry
     cavitation energy         =       0.02095396 Ry
     PV energy                 =      -0.08147241 Ry
     correction to one-el term =     193.00557039 Ry

     iteration # 19     ecut=    50.00 Ry     beta= 0.70
     Davidson diagonalization with overlap
     ethr =  7.38E-09,  avg # of iterations =  1.0

     negative rho (up, down):  6.714E-04 0.000E+00

     add environment contribution to local potential
     Polarization accuracy = 3.6E-12, # of iterations =  44

     total cpu time spent up to now is     3252.6 secs

     total energy              =   -3435.28379159 Ry
     estimated scf accuracy    <       0.00001386 Ry
     electrostatic embedding   =      -0.02909944 Ry
     cavitation energy         =       0.02095330 Ry
     PV energy                 =      -0.08147038 Ry
     correction to one-el term =     193.04488947 Ry

     iteration # 20     ecut=    50.00 Ry     beta= 0.70
     Davidson diagonalization with overlap
     ethr =  3.79E-09,  avg # of iterations =  2.0

     negative rho (up, down):  2.570E-04 0.000E+00

     add environment contribution to local potential
     Polarization accuracy = 3.2E-12, # of iterations =  44

     total cpu time spent up to now is     3418.1 secs

     total energy              =   -3435.28379302 Ry
     estimated scf accuracy    <       0.00000231 Ry
     electrostatic embedding   =      -0.02898003 Ry
     cavitation energy         =       0.02095514 Ry
     PV energy                 =      -0.08146430 Ry
     correction to one-el term =     193.14490100 Ry

     iteration # 21     ecut=    50.00 Ry     beta= 0.70
     Davidson diagonalization with overlap
     ethr =  6.30E-10,  avg # of iterations =  2.0

     negative rho (up, down):  2.892E-04 0.000E+00

     add environment contribution to local potential
     Polarization accuracy = 3.0E-12, # of iterations =  44

     total cpu time spent up to now is     3579.9 secs

     total energy              =   -3435.28379371 Ry
     estimated scf accuracy    <       0.00000188 Ry
     electrostatic embedding   =      -0.02907653 Ry
     cavitation energy         =       0.02096227 Ry
     PV energy                 =      -0.08145196 Ry
     correction to one-el term =     193.10416891 Ry

     iteration # 22     ecut=    50.00 Ry     beta= 0.70
     Davidson diagonalization with overlap
     ethr =  5.13E-10,  avg # of iterations =  2.0

     negative rho (up, down):  2.423E-04 0.000E+00

     add environment contribution to local potential
     Polarization accuracy = 2.9E-12, # of iterations =  44

     total cpu time spent up to now is     3731.6 secs

     total energy              =   -3435.28379422 Ry
     estimated scf accuracy    <       0.00000045 Ry
     electrostatic embedding   =      -0.02911941 Ry
     cavitation energy         =       0.02096263 Ry
     PV energy                 =      -0.08144567 Ry
     correction to one-el term =     193.10095558 Ry

     iteration # 23     ecut=    50.00 Ry     beta= 0.70
     Davidson diagonalization with overlap
     ethr =  1.22E-10,  avg # of iterations =  1.5

     negative rho (up, down):  2.009E-04 0.000E+00

     add environment contribution to local potential
     Polarization accuracy = 2.9E-12, # of iterations =  44

     total cpu time spent up to now is     3875.7 secs

     total energy              =   -3435.28379449 Ry
     estimated scf accuracy    <       0.00000018 Ry
     electrostatic embedding   =      -0.02914112 Ry
     cavitation energy         =       0.02096329 Ry
     PV energy                 =      -0.08144336 Ry
     correction to one-el term =     193.09212165 Ry

     iteration # 24     ecut=    50.00 Ry     beta= 0.70
     Davidson diagonalization with overlap
     ethr =  4.92E-11,  avg # of iterations =  2.0

     negative rho (up, down):  1.855E-04 0.000E+00

     add environment contribution to local potential
     Polarization accuracy = 2.9E-12, # of iterations =  44

     total cpu time spent up to now is     4007.9 secs

     total energy              =   -3435.28379481 Ry
     estimated scf accuracy    <       0.00000015 Ry
     electrostatic embedding   =      -0.02915466 Ry
     cavitation energy         =       0.02096370 Ry
     PV energy                 =      -0.08144204 Ry
     correction to one-el term =     193.08343547 Ry

     iteration # 25     ecut=    50.00 Ry     beta= 0.70
     Davidson diagonalization with overlap
     ethr =  4.01E-11,  avg # of iterations =  1.0

     negative rho (up, down):  1.555E-04 0.000E+00

     add environment contribution to local potential
     Polarization accuracy = 2.8E-12, # of iterations =  44

     total cpu time spent up to now is     4135.9 secs

     total energy              =   -3435.28379505 Ry
     estimated scf accuracy    <       0.00000013 Ry
     electrostatic embedding   =      -0.02915709 Ry
     cavitation energy         =       0.02096376 Ry
     PV energy                 =      -0.08144188 Ry
     correction to one-el term =     193.08038091 Ry

     iteration # 26     ecut=    50.00 Ry     beta= 0.70
     Davidson diagonalization with overlap
     ethr =  3.53E-11,  avg # of iterations =  2.0

     negative rho (up, down):  1.409E-04 0.000E+00

     add environment contribution to local potential
     Polarization accuracy = 3.0E-12, # of iterations =  46

     total cpu time spent up to now is     4266.1 secs

     total energy              =   -3435.28379564 Ry
     estimated scf accuracy    <       0.00000009 Ry
     electrostatic embedding   =      -0.02916300 Ry
     cavitation energy         =       0.02096413 Ry
     PV energy                 =      -0.08144112 Ry
     correction to one-el term =     193.07404060 Ry

     iteration # 27     ecut=    50.00 Ry     beta= 0.70
     Davidson diagonalization with overlap
     ethr =  2.59E-11,  avg # of iterations =  1.0

     negative rho (up, down):  1.395E-04 0.000E+00

     add environment contribution to local potential
     Polarization accuracy = 2.7E-12, # of iterations =  44

     total cpu time spent up to now is     4405.8 secs

     total energy              =   -3435.28379604 Ry
     estimated scf accuracy    <       0.00000007 Ry
     electrostatic embedding   =      -0.02916467 Ry
     cavitation energy         =       0.02096435 Ry
     PV energy                 =      -0.08144086 Ry
     correction to one-el term =     193.07145717 Ry

     iteration # 28     ecut=    50.00 Ry     beta= 0.70
     Davidson diagonalization with overlap
     ethr =  1.97E-11,  avg # of iterations =  1.0

     negative rho (up, down):  1.408E-04 0.000E+00

     add environment contribution to local potential
     Polarization accuracy = 2.7E-12, # of iterations =  44

     total cpu time spent up to now is     4546.4 secs

     total energy              =   -3435.28379644 Ry
     estimated scf accuracy    <       0.00000007 Ry
     electrostatic embedding   =      -0.02916127 Ry
     cavitation energy         =       0.02096427 Ry
     PV energy                 =      -0.08144118 Ry
     correction to one-el term =     193.07280728 Ry

     iteration # 29     ecut=    50.00 Ry     beta= 0.70
     Davidson diagonalization with overlap
     ethr =  1.96E-11,  avg # of iterations =  1.0

     negative rho (up, down):  1.405E-04 0.000E+00

     add environment contribution to local potential
     Polarization accuracy = 2.7E-12, # of iterations =  44

     total cpu time spent up to now is     4697.9 secs

     total energy              =   -3435.28379679 Ry
     estimated scf accuracy    <       0.00000006 Ry
     electrostatic embedding   =      -0.02916042 Ry
     cavitation energy         =       0.02096427 Ry
     PV energy                 =      -0.08144112 Ry
     correction to one-el term =     193.07353471 Ry

     iteration # 30     ecut=    50.00 Ry     beta= 0.70
     Davidson diagonalization with overlap
     ethr =  1.77E-11,  avg # of iterations =  2.0

     negative rho (up, down):  1.465E-04 0.000E+00

     add environment contribution to local potential
     Polarization accuracy = 2.6E-12, # of iterations =  44

     total cpu time spent up to now is     4867.3 secs

     total energy              =   -3435.28379804 Ry
     estimated scf accuracy    <       0.00000006 Ry
     electrostatic embedding   =      -0.02915574 Ry
     cavitation energy         =       0.02096415 Ry
     PV energy                 =      -0.08144146 Ry
     correction to one-el term =     193.07522939 Ry

     iteration # 31     ecut=    50.00 Ry     beta= 0.70
     Davidson diagonalization with overlap
     ethr =  1.69E-11,  avg # of iterations =  1.0

     negative rho (up, down):  1.573E-04 0.000E+00

     add environment contribution to local potential
     Polarization accuracy = 2.5E-12, # of iterations =  44

     total cpu time spent up to now is     5014.9 secs

     total energy              =   -3435.28379912 Ry
     estimated scf accuracy    <       0.00000005 Ry
     electrostatic embedding   =      -0.02915411 Ry
     cavitation energy         =       0.02096401 Ry
     PV energy                 =      -0.08144153 Ry
     correction to one-el term =     193.07684477 Ry

     iteration # 32     ecut=    50.00 Ry     beta= 0.70
     Davidson diagonalization with overlap
     ethr =  1.40E-11,  avg # of iterations =  3.0

     negative rho (up, down):  1.668E-04 0.000E+00

     add environment contribution to local potential
     Polarization accuracy = 2.5E-12, # of iterations =  44

     total cpu time spent up to now is     5161.4 secs

     total energy              =   -3435.28380481 Ry
     estimated scf accuracy    <       0.00000005 Ry
     electrostatic embedding   =      -0.02914996 Ry
     cavitation energy         =       0.02096366 Ry
     PV energy                 =      -0.08144168 Ry
     correction to one-el term =     193.07929558 Ry

     iteration # 33     ecut=    50.00 Ry     beta= 0.70
     Davidson diagonalization with overlap
     ethr =  1.27E-11,  avg # of iterations =  3.0

     negative rho (up, down):  1.685E-04 0.000E+00

     add environment contribution to local potential
     Polarization accuracy = 2.4E-12, # of iterations =  44

     total cpu time spent up to now is     5320.9 secs

     total energy              =   -3435.28381236 Ry
     estimated scf accuracy    <       0.00000002 Ry
     electrostatic embedding   =      -0.02915384 Ry
     cavitation energy         =       0.02096352 Ry
     PV energy                 =      -0.08144138 Ry
     correction to one-el term =     193.07819353 Ry

     iteration # 34     ecut=    50.00 Ry     beta= 0.70
     Davidson diagonalization with overlap
     ethr =  6.17E-12,  avg # of iterations =  2.5

     negative rho (up, down):  1.618E-04 0.000E+00

     add environment contribution to local potential
     Polarization accuracy = 2.3E-12, # of iterations =  44

     total cpu time spent up to now is     5461.0 secs

     total energy              =   -3435.28381534 Ry
     estimated scf accuracy    <       0.00000002 Ry
     electrostatic embedding   =      -0.02915468 Ry
     cavitation energy         =       0.02096355 Ry
     PV energy                 =      -0.08144138 Ry
     correction to one-el term =     193.07818658 Ry

     iteration # 35     ecut=    50.00 Ry     beta= 0.70
     Davidson diagonalization with overlap
     ethr =  5.00E-12,  avg # of iterations =  2.5

     negative rho (up, down):  1.564E-04 0.000E+00

     add environment contribution to local potential
     Polarization accuracy = 6.4E-12, # of iterations =  43

     total cpu time spent up to now is     5613.7 secs

     total energy              =   -3435.28381895 Ry
     estimated scf accuracy    <       0.00000001 Ry
     electrostatic embedding   =      -0.02915569 Ry
     cavitation energy         =       0.02096372 Ry
     PV energy                 =      -0.08144140 Ry
     correction to one-el term =     193.07729769 Ry

     iteration # 36     ecut=    50.00 Ry     beta= 0.70
     Davidson diagonalization with overlap
     ethr =  3.69E-12,  avg # of iterations =  2.0

     negative rho (up, down):  1.493E-04 0.000E+00

     add environment contribution to local potential
     Polarization accuracy = 6.1E-12, # of iterations =  43

     total cpu time spent up to now is     5771.7 secs

     total energy              =   -3435.28382046 Ry
     estimated scf accuracy    <          4.1E-09 Ry
     electrostatic embedding   =      -0.02915700 Ry
     cavitation energy         =       0.02096386 Ry
     PV energy                 =      -0.08144137 Ry
     correction to one-el term =     193.07636307 Ry

     iteration # 37     ecut=    50.00 Ry     beta= 0.70
     Davidson diagonalization with overlap
     ethr =  1.11E-12,  avg # of iterations =  3.0

     negative rho (up, down):  1.453E-04 0.000E+00

     add environment contribution to local potential
     Polarization accuracy = 6.5E-12, # of iterations =  43

     total cpu time spent up to now is     5923.4 secs

     total energy              =   -3435.28382093 Ry
     estimated scf accuracy    <          3.9E-09 Ry
     electrostatic embedding   =      -0.02915894 Ry
     cavitation energy         =       0.02096404 Ry
     PV energy                 =      -0.08144133 Ry
     correction to one-el term =     193.07508713 Ry

     iteration # 38     ecut=    50.00 Ry     beta= 0.70
     Davidson diagonalization with overlap
     ethr =  1.06E-12,  avg # of iterations =  2.0

     negative rho (up, down):  1.413E-04 0.000E+00

     add environment contribution to local potential
     Polarization accuracy = 6.4E-12, # of iterations =  43

     total cpu time spent up to now is     6067.4 secs

     total energy              =   -3435.28382169 Ry
     estimated scf accuracy    <          1.0E-09 Ry
     electrostatic embedding   =      -0.02915945 Ry
     cavitation energy         =       0.02096412 Ry
     PV energy                 =      -0.08144134 Ry
     correction to one-el term =     193.07456783 Ry

     iteration # 39     ecut=    50.00 Ry     beta= 0.70
     Davidson diagonalization with overlap
     ethr =  2.80E-13,  avg # of iterations =  2.0

     negative rho (up, down):  1.415E-04 0.000E+00

     the potential shift due to the Gaussian-smeared nuclei is    -1.3296 ev

     total cpu time spent up to now is     6205.1 secs

     End of self-consistent calculation

          k = 0.2500 0.2666 0.0000 ( 35123 PWs)   bands (ev):

   -77.9141 -77.9024 -77.9016 -77.8898 -77.7008 -77.6899 -77.6881 -77.6772
   -77.6212 -77.5710 -77.4952 -77.4854 -48.0983 -48.0858 -48.0837 -48.0712
   -47.9579 -47.9454 -47.9389 -47.9261 -47.9022 -47.8895 -47.8656 -47.8536
   -47.8356 -47.8147 -47.8108 -47.8070 -47.7467 -47.7331 -47.7295 -47.7172
   -47.7008 -47.6881 -47.6533 -47.5941 -47.5814 -47.5470 -47.5335 -47.5208
   -47.5165 -47.5038 -47.4428 -47.4134 -47.3712 -47.3529 -47.3273 -47.3062
   -24.1464 -23.9948 -23.8341 -23.6730 -23.6367 -23.5270 -23.4151 -23.3688
   -23.3241 -23.2146 -23.1005 -23.0575 -23.0457 -22.9500 -22.9277 -22.8838
   -22.8366 -22.8270 -22.8112 -22.6791 -22.6622 -22.6337 -22.6084 -22.5818
   -22.5037 -22.4604 -22.3010 -22.1499 -12.1781 -12.1446 -12.1160 -12.0063
   -11.8046 -11.7388 -11.5998 -11.5105 -11.4869 -11.4239 -11.3761 -11.2999
   -11.2147 -11.2086 -11.1450 -11.1240 -11.0848 -11.0078 -10.9775 -10.8806
   -10.8501 -10.8203 -10.7070 -10.6247 -10.4247 -10.3438 -10.3325 -10.1515
   -10.1446 -10.0385  -9.8916  -9.8861  -9.8226  -9.6769  -9.5868  -9.5249
    -9.3808  -9.2971  -9.2557  -9.1502  -9.1011  -8.9800  -8.9740  -8.9104
    -8.8368  -8.7001  -8.6987  -8.4746  -8.4409  -8.4016  -8.3789  -8.3089
    -8.2760  -8.2225  -8.2171  -8.1795  -8.1222  -8.0438  -8.0069  -7.9202
    -7.8546  -7.8032  -7.7324  -7.6096  -7.5125  -7.4518  -7.3970  -7.3367
    -7.2451  -7.2320  -7.1050  -7.0245  -6.9484  -6.9115  -6.7722  -6.7464
    -6.6768  -6.6352  -6.5929  -6.5666  -6.4453  -6.3850  -6.1806  -6.1643
    -5.1981  -5.1903  -5.1423  -5.0861  -5.0618  -5.0202  -5.0111  -4.9583
    -4.9218  -4.8981  -4.8922  -4.8405  -4.8110  -4.7625  -4.6956  -4.6434
    -4.5858  -4.5348  -4.4789  -4.4778  -4.3473  -4.3041  -4.2150  -4.1183
    -4.0982  -3.9696  -3.7570  -3.7161  -3.5469  -3.3699  -3.3443  -3.2997
    -3.2585  -3.2131  -3.0427  -2.8894  -2.3124  -1.9144  -1.8366  -1.7912
    -1.7420  -1.7242  -1.3968  -0.8217  -0.7641  -0.4916  -0.4222  -0.3444
    -0.2881  -0.2076  -0.0713  -0.0622   0.0730   0.1805   0.2559   0.4746
     0.5719   0.5768   0.6245   1.0360

          k =-0.2500 0.2666 0.0000 ( 35123 PWs)   bands (ev):

   -77.9141 -77.9024 -77.9016 -77.8898 -77.7008 -77.6899 -77.6881 -77.6772
   -77.6212 -77.5710 -77.4952 -77.4854 -48.0983 -48.0858 -48.0838 -48.0712
   -47.9579 -47.9454 -47.9389 -47.9261 -47.9022 -47.8895 -47.8655 -47.8536
   -47.8356 -47.8147 -47.8107 -47.8070 -47.7468 -47.7331 -47.7295 -47.7171
   -47.7005 -47.6878 -47.6534 -47.5950 -47.5822 -47.5469 -47.5328 -47.5200
   -47.5168 -47.5040 -47.4429 -47.4134 -47.3711 -47.3529 -47.3273 -47.3062
   -24.1465 -23.9948 -23.8342 -23.6736 -23.6376 -23.5260 -23.4125 -23.3673
   -23.3237 -23.2174 -23.1035 -23.0570 -23.0454 -22.9503 -22.9274 -22.8868
   -22.8344 -22.8244 -22.8124 -22.6753 -22.6626 -22.6322 -22.6113 -22.5829
   -22.5038 -22.4602 -22.3010 -22.1500 -12.1782 -12.1441 -12.1165 -12.0052
   -11.8036 -11.7389 -11.5953 -11.5147 -11.5051 -11.4263 -11.3711 -11.3004
   -11.2185 -11.1976 -11.1363 -11.1267 -11.0837 -10.9768 -10.9760 -10.9220
   -10.8351 -10.8279 -10.7136 -10.6237 -10.4089 -10.4057 -10.3263 -10.1273
   -10.0997 -10.0005  -9.9235  -9.9124  -9.8068  -9.6144  -9.5933  -9.5526
    -9.4018  -9.2744  -9.2693  -9.1904  -9.1457  -8.9696  -8.9439  -8.8957
    -8.8603  -8.7146  -8.6670  -8.5195  -8.4300  -8.4095  -8.3694  -8.3065
    -8.2610  -8.2362  -8.2342  -8.1765  -8.0791  -8.0260  -8.0026  -7.9100
    -7.8433  -7.8182  -7.7522  -7.6100  -7.5283  -7.4676  -7.3852  -7.3059
    -7.2536  -7.1985  -7.1310  -7.0336  -6.9936  -6.8733  -6.8120  -6.7437
    -6.6715  -6.6381  -6.6167  -6.5388  -6.4765  -6.3043  -6.1830  -6.1589
    -5.2337  -5.1894  -5.1757  -5.0609  -5.0568  -5.0017  -4.9972  -4.9544
    -4.9212  -4.9074  -4.8910  -4.8671  -4.8292  -4.7536  -4.7005  -4.5872
    -4.5841  -4.5373  -4.5002  -4.4564  -4.3929  -4.3112  -4.2081  -4.1217
    -4.0627  -3.9854  -3.7591  -3.7204  -3.5441  -3.3689  -3.3517  -3.2931
    -3.2575  -3.2133  -3.0411  -2.8895  -2.3124  -1.9099  -1.8346  -1.7934
    -1.7416  -1.7259  -1.3985  -0.8191  -0.7624  -0.4911  -0.4190  -0.3437
    -0.2886  -0.2065  -0.0740  -0.0648   0.0706   0.1779   0.2622   0.4736
     0.5717   0.5767   0.6201   1.0353

     the Fermi energy is    -4.1926 ev

!    total energy              =   -3435.28382157 Ry
     estimated scf accuracy    <          1.5E-10 Ry
     smearing contrib. (-TS)   =       0.06071067 Ry
     internal energy E=F+TS    =   -3435.34453223 Ry

     The total energy is F=E-TS. E is the sum of the following terms:
     one-electron contribution =  -25396.69553368 Ry
     hartree contribution      =   12679.60617218 Ry
     xc contribution           =    -447.91269232 Ry
     ewald contribution        =    9803.19207721 Ry
     one-center paw contrib.   =    -266.51883859 Ry
     electrostatic embedding   =      -0.02916028 Ry
     cavitation energy         =       0.02096421 Ry
     PV energy                 =      -0.08144133 Ry
     correction to one-el term =     193.07392037 Ry

     WARNING: you are using the parabolic pbc correction;
              the potential shift above must be added to 
              band and Fermi energies.

     convergence has been achieved in  39 iterations

     negative rho (up, down):  1.415E-04 0.000E+00

     Forces acting on atoms (cartesian axes, Ry/au):

     atom    1 type  1   force =     0.00112213   -0.00128078    0.00059023
     atom    2 type  1   force =    -0.00021253   -0.00029415   -0.00323271
     atom    3 type  1   force =     0.00007794    0.00071335    0.00030380
     atom    4 type  1   force =     0.00116579    0.00007178   -0.00073730
     atom    5 type  2   force =     0.00158855    0.00003104   -0.00039041
     atom    6 type  2   force =    -0.00057973   -0.00016228    0.00004327
     atom    7 type  1   force =    -0.00004734    0.00026631    0.00049911
     atom    8 type  1   force =     0.00042233    0.00015209   -0.00003157
     atom    9 type  2   force =    -0.00083610    0.00040056   -0.00084297
     atom   10 type  2   force =    -0.00138148   -0.00020231   -0.00164688
     atom   11 type  1   force =     0.00014677   -0.00005636    0.00004839
     atom   12 type  1   force =    -0.00055316   -0.00032886   -0.00083331
     atom   13 type  1   force =     0.00062573    0.00045663   -0.00157648
     atom   14 type  1   force =    -0.00068999   -0.00006281    0.00268865
     atom   15 type  1   force =     0.00177441   -0.00049574   -0.00113760
     atom   16 type  1   force =     0.00103931    0.00045371    0.00084427
     atom   17 type  2   force =    -0.00060253   -0.00024719    0.00000000
     atom   18 type  2   force =    -0.00101197    0.00016489    0.00000000
     atom   19 type  1   force =     0.00099312   -0.00043525    0.00000000
     atom   20 type  1   force =    -0.00241635   -0.00073348    0.00000000
     atom   21 type  2   force =    -0.00200170    0.00000391    0.00000000
     atom   22 type  2   force =    -0.00141600   -0.00011916    0.00000000
     atom   23 type  1   force =     0.00143618    0.00045749    0.00000000
     atom   24 type  1   force =    -0.00282317    0.00037292    0.00000000
     atom   25 type  1   force =     0.00177441   -0.00049574    0.00113760
     atom   26 type  1   force =     0.00103931    0.00045371   -0.00084427
     atom   27 type  1   force =     0.00062573    0.00045663    0.00157648
     atom   28 type  1   force =    -0.00068999   -0.00006281   -0.00268865
     atom   29 type  2   force =     0.00158855    0.00003104    0.00039041
     atom   30 type  2   force =    -0.00057973   -0.00016228   -0.00004327
     atom   31 type  1   force =    -0.00004734    0.00026631   -0.00049911
     atom   32 type  1   force =     0.00042233    0.00015209    0.00003157
     atom   33 type  2   force =    -0.00083610    0.00040056    0.00084297
     atom   34 type  2   force =    -0.00138148   -0.00020231    0.00164688
     atom   35 type  1   force =     0.00014677   -0.00005636   -0.00004839
     atom   36 type  1   force =    -0.00055316   -0.00032886    0.00083331
     atom   37 type  1   force =     0.00007794    0.00071335   -0.00030380
     atom   38 type  1   force =     0.00116579    0.00007178    0.00073730
     atom   39 type  1   force =     0.00112213   -0.00128078   -0.00059023
     atom   40 type  1   force =    -0.00021253   -0.00029415    0.00323271
     atom   41 type  3   force =     0.00015585   -0.00066439   -0.00016641
     atom   42 type  3   force =     0.00015585   -0.00066439    0.00016641
     atom   43 type  3   force =     0.00092729   -0.00011833    0.00081699
     atom   44 type  3   force =     0.00092729   -0.00011833   -0.00081699
     atom   45 type  3   force =    -0.00082457    0.00138848    0.00266762
     atom   46 type  3   force =    -0.00082457    0.00138848   -0.00266762
     The non-local contrib.  to forces
     atom    1 type  1   force =     1.71841939    0.33778678    0.27776111
     atom    2 type  1   force =     1.76045723   -0.05783749    0.29170029
     atom    3 type  1   force =     0.00315515    1.43438918   -0.18439251
     atom    4 type  1   force =     0.00260580    0.01352459    1.08056405
     atom    5 type  2   force =     0.04479986    0.00355450   -0.00870251
     atom    6 type  2   force =    -0.04556770    0.00446200   -0.01116465
     atom    7 type  1   force =     0.00710830   -0.07369680   -0.02417653
     atom    8 type  1   force =    -0.03175145   -0.07420123   -0.01500129
     atom    9 type  2   force =     0.00750025    0.00152530    0.03062863
     atom   10 type  2   force =     0.00497338    0.00403200    0.04018174
     atom   11 type  1   force =    -0.01095904    0.05982972    0.03886280
     atom   12 type  1   force =    -0.01012391    0.04436741    0.02850751
     atom   13 type  1   force =     0.00775877   -0.00176870    0.09329350
     atom   14 type  1   force =     0.00918436    0.04081544   -0.04989321
     atom   15 type  1   force =    -0.00402410   -0.01669335   -0.00613342
     atom   16 type  1   force =     0.00170162   -0.00499979    0.03661566
     atom   17 type  2   force =     0.00236032    0.00206223    0.00000000
     atom   18 type  2   force =     0.00181523   -0.00074576    0.00000000
     atom   19 type  1   force =     0.01437227    0.03948050    0.00000000
     atom   20 type  1   force =    -0.01337139    0.03706718    0.00000000
     atom   21 type  2   force =     0.01028367    0.00227982    0.00000000
     atom   22 type  2   force =     0.01426636   -0.00050309    0.00000000
     atom   23 type  1   force =     0.00564752   -0.03711964    0.00000000
     atom   24 type  1   force =    -0.00386615   -0.03551957    0.00000000
     atom   25 type  1   force =    -0.00402410   -0.01669335    0.00613342
     atom   26 type  1   force =     0.00170162   -0.00499979   -0.03661566
     atom   27 type  1   force =     0.00775877   -0.00176870   -0.09329350
     atom   28 type  1   force =     0.00918436    0.04081544    0.04989321
     atom   29 type  2   force =     0.04479986    0.00355450    0.00870251
     atom   30 type  2   force =    -0.04556770    0.00446200    0.01116465
     atom   31 type  1   force =     0.00710830   -0.07369680    0.02417653
     atom   32 type  1   force =    -0.03175145   -0.07420123    0.01500129
     atom   33 type  2   force =     0.00750025    0.00152530   -0.03062863
     atom   34 type  2   force =     0.00497338    0.00403200   -0.04018174
     atom   35 type  1   force =    -0.01095904    0.05982972   -0.03886280
     atom   36 type  1   force =    -0.01012391    0.04436741   -0.02850751
     atom   37 type  1   force =     0.00315515    1.43438918    0.18439251
     atom   38 type  1   force =     0.00260580    0.01352459   -1.08056405
     atom   39 type  1   force =     1.71841939    0.33778678   -0.27776111
     atom   40 type  1   force =     1.76045723   -0.05783749   -0.29170029
     atom   41 type  3   force =    -0.09576450   -0.02053119    0.04488478
     atom   42 type  3   force =    -0.09576450   -0.02053119   -0.04488478
     atom   43 type  3   force =    -0.09704746    0.00250015    0.04654285
     atom   44 type  3   force =    -0.09704746    0.00250015   -0.04654285
     atom   45 type  3   force =     0.00028511   -0.07920883    0.06978118
     atom   46 type  3   force =     0.00028511   -0.07920883   -0.06978118
     The ionic contribution  to forces
     atom    1 type  1   force =    -2.83297670   -0.41282969  -94.98828080
     atom    2 type  1   force =    -2.90629072    0.22988882  -95.61197381
     atom    3 type  1   force =    -0.01578737   -2.94203010  -91.30247941
     atom    4 type  1   force =     0.01032555   -0.12399493  -94.34931342
     atom    5 type  2   force =    -3.47292617   -0.49779253 -172.53054210
     atom    6 type  2   force =     3.61290241   -0.60217521 -172.70773967
     atom    7 type  1   force =    -0.19755090   -1.17790133  -62.61164775
     atom    8 type  1   force =     0.22793455   -1.20026203  -63.08977889
     atom    9 type  2   force =     0.07429430    1.01657924 -168.19956709
     atom   10 type  2   force =    -0.11805364    0.41864034 -169.70084041
     atom   11 type  1   force =    -0.33262228    1.36007596  -64.51343427
     atom   12 type  1   force =     0.39793038    1.46037906  -64.10878387
     atom   13 type  1   force =    -0.05494274   -0.13799029  -39.09480890
     atom   14 type  1   force =    -0.08717661   -0.18324112  -37.27365971
     atom   15 type  1   force =    -0.02681386    0.07803857  -25.36817114
     atom   16 type  1   force =    -0.04860401    0.08022906  -25.74642609
     atom   17 type  2   force =     0.12028255    0.08390930   -0.00043572
     atom   18 type  2   force =     0.01149436    0.14436311   -0.00044297
     atom   19 type  1   force =    -0.09516316    0.78204104   -0.00007911
     atom   20 type  1   force =     0.08742803    0.84396845   -0.00007893
     atom   21 type  2   force =     0.16177868   -0.01476408   -0.00025643
     atom   22 type  2   force =     0.11147442   -0.11200863   -0.00025684
     atom   23 type  1   force =    -0.08523419   -0.81827386   -0.00007796
     atom   24 type  1   force =     0.05773429   -0.80257720   -0.00007826
     atom   25 type  1   force =    -0.02681725    0.07803878   25.36796400
     atom   26 type  1   force =    -0.04860717    0.08023025   25.74623572
     atom   27 type  1   force =    -0.05494382   -0.13799142   39.09510535
     atom   28 type  1   force =    -0.08717805   -0.18324403   37.27397739
     atom   29 type  2   force =    -3.47286130   -0.49779795  172.53079396
     atom   30 type  2   force =     3.61283868   -0.60218131  172.70799022
     atom   31 type  1   force =    -0.19754654   -1.17793177   62.61170858
     atom   32 type  1   force =     0.22793217   -1.20029238   63.08983871
     atom   33 type  2   force =     0.07428879    1.01658542  168.19969162
     atom   34 type  2   force =    -0.11805977    0.41864219  169.70096273
     atom   35 type  1   force =    -0.33262050    1.36010831   64.51349427
     atom   36 type  1   force =     0.39793069    1.46041113   64.10884489
     atom   37 type  1   force =    -0.01578625   -2.94226508   91.30250242
     atom   38 type  1   force =     0.01032448   -0.12399509   94.34945705
     atom   39 type  1   force =    -2.83305880   -0.41284313   94.98839159
     atom   40 type  1   force =    -2.90637712    0.22989082   95.61207877
     atom   41 type  3   force =     2.79093313    0.69816979  -16.39409747
     atom   42 type  3   force =     2.79101888    0.69818741   16.39411549
     atom   43 type  3   force =     2.79386599   -0.03861615  -16.44255223
     atom   44 type  3   force =     2.79395661   -0.03861843   16.44257436
     atom   45 type  3   force =     0.00066517    1.92150476  -17.28753026
     atom   46 type  3   force =     0.00066475    1.92173596   17.28760638
     The local contribution  to forces
     atom    1 type  1   force =     1.11103909    0.11873488   94.72742450
     atom    2 type  1   force =     1.13782447   -0.16048398   95.31263979
     atom    3 type  1   force =     0.01062160    1.47616049   91.51312234
     atom    4 type  1   force =    -0.01471079    0.10029369   93.23286653
     atom    5 type  2   force =     3.45821320    0.47604095  172.53219711
     atom    6 type  2   force =    -3.59415742    0.57758219  172.71400265
     atom    7 type  1   force =     0.20010391    1.25234428   62.64083248
     atom    8 type  1   force =    -0.20449779    1.27523846   63.11116769
     atom    9 type  2   force =    -0.08382883   -0.99682651  168.18261908
     atom   10 type  2   force =     0.10837679   -0.41202478  169.64636427
     atom   11 type  1   force =     0.35006808   -1.41502564   64.46973719
     atom   12 type  1   force =    -0.39304346   -1.50008935   64.07411904
     atom   13 type  1   force =     0.04793812    0.13781983   39.00245135
     atom   14 type  1   force =     0.07721709    0.14135600   37.32148821
     atom   15 type  1   force =     0.03261680   -0.06100114   25.37349744
     atom   16 type  1   force =     0.04785650   -0.07401747   25.70968828
     atom   17 type  2   force =    -0.12314426   -0.08767141   -0.00588335
     atom   18 type  2   force =    -0.01443877   -0.14463412   -0.00585763
     atom   19 type  1   force =     0.08276869   -0.82219721   -0.00245478
     atom   20 type  1   force =    -0.07743719   -0.88201759   -0.00245548
     atom   21 type  2   force =    -0.17218660    0.01377275   -0.00601591
     atom   22 type  2   force =    -0.12901598    0.11372697   -0.00601702
     atom   23 type  1   force =     0.08182944    0.85573309   -0.00245677
     atom   24 type  1   force =    -0.05748175    0.83837824   -0.00245707
     atom   25 type  1   force =     0.03261027   -0.06100157  -25.37525182
     atom   26 type  1   force =     0.04785137   -0.07401946  -25.71143591
     atom   27 type  1   force =     0.04793836    0.13782310  -39.00422565
     atom   28 type  1   force =     0.07721822    0.14135608  -37.32323404
     atom   29 type  2   force =     3.45822747    0.47604406 -172.53826685
     atom   30 type  2   force =    -3.59416768    0.57759245 -172.72007359
     atom   31 type  1   force =     0.20010459    1.25234014  -62.64328122
     atom   32 type  1   force =    -0.20449542    1.27523358  -63.11362002
     atom   33 type  2   force =    -0.08383673   -0.99685911 -168.18844503
     atom   34 type  2   force =     0.10836673   -0.41202290 -169.65218357
     atom   35 type  1   force =     0.35007725   -1.41502218  -64.47219264
     atom   36 type  1   force =    -0.39304936   -1.50008634  -64.07657509
     atom   37 type  1   force =     0.01062021    1.47626461  -91.51688194
     atom   38 type  1   force =    -0.01470937    0.10028962  -93.23676093
     atom   39 type  1   force =     1.11106519    0.11871811  -94.72899544
     atom   40 type  1   force =     1.13784866   -0.16048424  -95.31418001
     atom   41 type  3   force =    -2.69970508   -0.67480239   16.36194627
     atom   42 type  3   force =    -2.69970508   -0.67480239  -16.36194627
     atom   43 type  3   force =    -2.70717507    0.03895123   16.40972049
     atom   44 type  3   force =    -2.70717507    0.03895123  -16.40972049
     atom   45 type  3   force =    -0.00321471   -1.84728159   17.24111202
     atom   46 type  3   force =    -0.00321471   -1.84728159  -17.24111202
     The core correction contribution to forces
     atom    1 type  1   force =    -0.01729439   -0.00335405   -0.00314288
     atom    2 type  1   force =    -0.01774912    0.00060400   -0.00309066
     atom    3 type  1   force =    -0.00004048   -0.01435578    0.00110710
     atom    4 type  1   force =    -0.00004517   -0.00016348   -0.01067071
     atom    5 type  2   force =     0.00000000    0.00000000    0.00000000
     atom    6 type  2   force =     0.00000000    0.00000000    0.00000000
     atom    7 type  1   force =    -0.00008274    0.00053189    0.00019657
     atom    8 type  1   force =     0.00037955    0.00053005    0.00013949
     atom    9 type  2   force =     0.00000000    0.00000000    0.00000000
     atom   10 type  2   force =     0.00000000    0.00000000    0.00000000
     atom   11 type  1   force =     0.00010353   -0.00035904   -0.00039871
     atom   12 type  1   force =     0.00016439   -0.00022205   -0.00032039
     atom   13 type  1   force =    -0.00006879    0.00003960   -0.00093589
     atom   14 type  1   force =    -0.00008127   -0.00049100    0.00047749
     atom   15 type  1   force =     0.00006177    0.00021512   -0.00019355
     atom   16 type  1   force =    -0.00001033    0.00003543   -0.00071937
     atom   17 type  2   force =     0.00000000    0.00000000    0.00000000
     atom   18 type  2   force =     0.00000000    0.00000000    0.00000000
     atom   19 type  1   force =    -0.00017801   -0.00006467   -0.00000207
     atom   20 type  1   force =     0.00016431   -0.00006476   -0.00000206
     atom   21 type  2   force =     0.00000000    0.00000000    0.00000000
     atom   22 type  2   force =     0.00000000    0.00000000    0.00000000
     atom   23 type  1   force =    -0.00008747    0.00005835   -0.00000203
     atom   24 type  1   force =     0.00007884    0.00002596   -0.00000204
     atom   25 type  1   force =     0.00006174    0.00021521    0.00019138
     atom   26 type  1   force =    -0.00001035    0.00003542    0.00071727
     atom   27 type  1   force =    -0.00006879    0.00003961    0.00093363
     atom   28 type  1   force =    -0.00008127   -0.00049106   -0.00047988
     atom   29 type  2   force =     0.00000000    0.00000000    0.00000000
     atom   30 type  2   force =     0.00000000    0.00000000    0.00000000
     atom   31 type  1   force =    -0.00008267    0.00053191   -0.00019843
     atom   32 type  1   force =     0.00037952    0.00053005   -0.00014142
     atom   33 type  2   force =     0.00000000    0.00000000    0.00000000
     atom   34 type  2   force =     0.00000000    0.00000000    0.00000000
     atom   35 type  1   force =     0.00010365   -0.00035900    0.00039673
     atom   36 type  1   force =     0.00016435   -0.00022203    0.00031846
     atom   37 type  1   force =    -0.00004046   -0.01435793   -0.00111129
     atom   38 type  1   force =    -0.00004516   -0.00016359    0.01066635
     atom   39 type  1   force =    -0.01729513   -0.00335422    0.00314039
     atom   40 type  1   force =    -0.01774993    0.00060403    0.00308831
     atom   41 type  3   force =     0.00000000    0.00000000    0.00000000
     atom   42 type  3   force =     0.00000000    0.00000000    0.00000000
     atom   43 type  3   force =     0.00000000    0.00000000    0.00000000
     atom   44 type  3   force =     0.00000000    0.00000000    0.00000000
     atom   45 type  3   force =     0.00000000    0.00000000    0.00000000
     atom   46 type  3   force =     0.00000000    0.00000000    0.00000000
     The Hubbard contrib.    to forces
     atom    1 type  1   force =     0.00000000    0.00000000    0.00000000
     atom    2 type  1   force =     0.00000000    0.00000000    0.00000000
     atom    3 type  1   force =     0.00000000    0.00000000    0.00000000
     atom    4 type  1   force =     0.00000000    0.00000000    0.00000000
     atom    5 type  2   force =     0.00000000    0.00000000    0.00000000
     atom    6 type  2   force =     0.00000000    0.00000000    0.00000000
     atom    7 type  1   force =     0.00000000    0.00000000    0.00000000
     atom    8 type  1   force =     0.00000000    0.00000000    0.00000000
     atom    9 type  2   force =     0.00000000    0.00000000    0.00000000
     atom   10 type  2   force =     0.00000000    0.00000000    0.00000000
     atom   11 type  1   force =     0.00000000    0.00000000    0.00000000
     atom   12 type  1   force =     0.00000000    0.00000000    0.00000000
     atom   13 type  1   force =     0.00000000    0.00000000    0.00000000
     atom   14 type  1   force =     0.00000000    0.00000000    0.00000000
     atom   15 type  1   force =     0.00000000    0.00000000    0.00000000
     atom   16 type  1   force =     0.00000000    0.00000000    0.00000000
     atom   17 type  2   force =     0.00000000    0.00000000    0.00000000
     atom   18 type  2   force =     0.00000000    0.00000000    0.00000000
     atom   19 type  1   force =     0.00000000    0.00000000    0.00000000
     atom   20 type  1   force =     0.00000000    0.00000000    0.00000000
     atom   21 type  2   force =     0.00000000    0.00000000    0.00000000
     atom   22 type  2   force =     0.00000000    0.00000000    0.00000000
     atom   23 type  1   force =     0.00000000    0.00000000    0.00000000
     atom   24 type  1   force =     0.00000000    0.00000000    0.00000000
     atom   25 type  1   force =     0.00000000    0.00000000    0.00000000
     atom   26 type  1   force =     0.00000000    0.00000000    0.00000000
     atom   27 type  1   force =     0.00000000    0.00000000    0.00000000
     atom   28 type  1   force =     0.00000000    0.00000000    0.00000000
     atom   29 type  2   force =     0.00000000    0.00000000    0.00000000
     atom   30 type  2   force =     0.00000000    0.00000000    0.00000000
     atom   31 type  1   force =     0.00000000    0.00000000    0.00000000
     atom   32 type  1   force =     0.00000000    0.00000000    0.00000000
     atom   33 type  2   force =     0.00000000    0.00000000    0.00000000
     atom   34 type  2   force =     0.00000000    0.00000000    0.00000000
     atom   35 type  1   force =     0.00000000    0.00000000    0.00000000
     atom   36 type  1   force =     0.00000000    0.00000000    0.00000000
     atom   37 type  1   force =     0.00000000    0.00000000    0.00000000
     atom   38 type  1   force =     0.00000000    0.00000000    0.00000000
     atom   39 type  1   force =     0.00000000    0.00000000    0.00000000
     atom   40 type  1   force =     0.00000000    0.00000000    0.00000000
     atom   41 type  3   force =     0.00000000    0.00000000    0.00000000
     atom   42 type  3   force =     0.00000000    0.00000000    0.00000000
     atom   43 type  3   force =     0.00000000    0.00000000    0.00000000
     atom   44 type  3   force =     0.00000000    0.00000000    0.00000000
     atom   45 type  3   force =     0.00000000    0.00000000    0.00000000
     atom   46 type  3   force =     0.00000000    0.00000000    0.00000000
     The SCF correction term to forces
     atom    1 type  1   force =    -0.00000427    0.00000533    0.00000219
     atom    2 type  1   force =     0.00000448    0.00000216    0.00000202
     atom    3 type  1   force =    -0.00000213   -0.00000596    0.00000910
     atom    4 type  1   force =     0.00000236   -0.00000192    0.00000442
     atom    5 type  2   force =     0.00000812   -0.00000602    0.00000851
     atom    6 type  2   force =    -0.00000772   -0.00000582    0.00000644
     atom    7 type  1   force =     0.00000434    0.00000106    0.00000153
     atom    8 type  1   force =    -0.00000430    0.00000095   -0.00000011
     atom    9 type  2   force =    -0.00000511    0.00000625    0.00000050
     atom   10 type  2   force =     0.00000387    0.00000353   -0.00000904
     atom   11 type  1   force =     0.00000371    0.00000046   -0.00000028
     atom   12 type  1   force =    -0.00000373    0.00000056   -0.00000176
     atom   13 type  1   force =    -0.00000112   -0.00000063    0.00000367
     atom   14 type  1   force =     0.00000113   -0.00000048    0.00000298
     atom   15 type  1   force =    -0.00000064    0.00000042    0.00000213
     atom   16 type  1   force =     0.00000073    0.00000036    0.00000000
     atom   17 type  2   force =    -0.00000111   -0.00000086    0.00001594
     atom   18 type  2   force =     0.00000095   -0.00000085    0.00001591
     atom   19 type  1   force =     0.00000202   -0.00000620    0.00000577
     atom   20 type  1   force =    -0.00000202   -0.00000614    0.00000577
     atom   21 type  2   force =     0.00000250    0.00000083    0.00001583
     atom   22 type  2   force =    -0.00000261    0.00000075    0.00001583
     atom   23 type  1   force =     0.00000196    0.00000597    0.00000579
     atom   24 type  1   force =    -0.00000200    0.00000592    0.00000580
     atom   25 type  1   force =    -0.00000064    0.00000044    0.00000591
     atom   26 type  1   force =     0.00000073    0.00000039    0.00000797
     atom   27 type  1   force =    -0.00000112   -0.00000067    0.00000013
     atom   28 type  1   force =     0.00000114   -0.00000053    0.00000084
     atom   29 type  2   force =     0.00000812   -0.00000615   -0.00001389
     atom   30 type  2   force =    -0.00000773   -0.00000599   -0.00001183
     atom   31 type  1   force =     0.00000440    0.00000084   -0.00000326
     atom   32 type  1   force =    -0.00000437    0.00000072   -0.00000167
     atom   33 type  2   force =    -0.00000510    0.00000641   -0.00000597
     atom   34 type  2   force =     0.00000389    0.00000367    0.00000345
     atom   35 type  1   force =     0.00000377    0.00000073   -0.00000160
     atom   36 type  1   force =    -0.00000379    0.00000083   -0.00000007
     atom   37 type  1   force =    -0.00000214   -0.00000605   -0.00001251
     atom   38 type  1   force =     0.00000236   -0.00000197   -0.00000788
     atom   39 type  1   force =    -0.00000430    0.00000535   -0.00000491
     atom   40 type  1   force =     0.00000446    0.00000220   -0.00000480
     atom   41 type  3   force =     0.00000020    0.00000047    0.00000016
     atom   42 type  3   force =     0.00000024    0.00000048   -0.00000056
     atom   43 type  3   force =    -0.00000071    0.00000029    0.00000061
     atom   44 type  3   force =    -0.00000069    0.00000029   -0.00000102
     atom   45 type  3   force =    -0.00000029    0.00000011    0.00000017
     atom   46 type  3   force =    -0.00000029    0.00000010   -0.00000062

     Total force =     0.011767     Total SCF correction =     0.000058

     BFGS Geometry Optimization
     Energy error            =      0.0E+00 Ry
     Gradient error          =      3.2E-03 Ry/Bohr

     number of scf cycles    =   1
     number of bfgs steps    =   0

     energy             new  =   -3435.2838215689 Ry

     new trust radius        =       0.0032530142 bohr
     new conv_thr            =       0.0000000010 Ry


ATOMIC_POSITIONS (crystal)
O            -0.0097911109        0.4742817883        0.2696149825
O             0.4898393551        0.5018693021        0.2696083923
O            -0.0002108138        0.0024499489        0.2985544219
O             0.4992899998       -0.0001315928        0.3081903297
Ru            0.2554254463        0.0004954577        0.3559017504
Ru            0.7435695987        0.0008543057        0.3558506416
O             0.2495883902        0.3126081441        0.3585597564
O             0.7486346333        0.3126291402        0.3577640072
Ru           -0.0010110528        0.4997013772        0.3578486175
Ru            0.4994604327        0.5009581564        0.3566562872
O             0.2461332183        0.6879722311        0.3561565173
O             0.7516885990        0.6879183658        0.3568042047
O            -0.0001838355       -0.0000576689        0.4115387411
O             0.5001182737       -0.0021344460        0.4114920382
O             0.0022736969        0.5009665501        0.4457293028
O             0.5021391156        0.5022351104        0.4447279430
Ru            0.0011531852        0.0003520904        0.5000010000
Ru            0.5013368025        0.0006375344        0.5000010000
O             0.2511933511        0.1888535184        0.5000010000
O             0.7514206574        0.1887362993        0.5000010000
Ru            0.2522320520        0.5006646003        0.5000010000
Ru            0.7499967006        0.5007965022        0.5000010000
O             0.2508938190        0.8126633053        0.5000010000
O             0.7519618175        0.8125063671        0.5000010000
O             0.0022736969        0.5009665501        0.5542716972
O             0.5021391156        0.5022351104        0.5552730570
O            -0.0001838355       -0.0000576689        0.5884622589
O             0.5001182737       -0.0021344460        0.5885089618
Ru            0.2554254463        0.0004954577        0.6440992496
Ru            0.7435695987        0.0008543057        0.6441503584
O             0.2495883902        0.3126081441        0.6414412436
O             0.7486346333        0.3126291402        0.6422369928
Ru           -0.0010110528        0.4997013772        0.6421523825
Ru            0.4994604327        0.5009581564        0.6433447128
O             0.2461332183        0.6879722311        0.6438444827
O             0.7516885990        0.6879183658        0.6431967953
O            -0.0002108138        0.0024499489        0.7014475781
O             0.4992899998       -0.0001315928        0.6918116703
O            -0.0097911109        0.4742817883        0.7303860175
O             0.4898393551        0.5018693021        0.7303926077
H             0.1259217161        0.5049014009        0.2520590196
H             0.1259217161        0.5049014009        0.7479409804
H             0.6278213217        0.4979663604        0.2515200941
H             0.6278213217        0.4979663604        0.7484799059
H            -0.0005311770        0.1261279598        0.2697622772
H            -0.0005311770        0.1261279598        0.7302377228



     Writing config-only to output data dir /storage/home/mgm6007/ixd4/Maria/Strain2_Files/RuO2-110-0-012/RuO2-110-0-012.save/
     NEW-OLD atomic charge density approx. for the potential

     Check: negative core charge=   -0.000001

     negative rho (up, down):  1.415E-04 0.000E+00

     add environment contribution to local potential
     Polarization accuracy = 6.1E-12, # of iterations =  43

     total cpu time spent up to now is     6352.7 secs

     per-process dynamical memory:   217.1 Mb

     Self-consistent Calculation

     iteration #  1     ecut=    50.00 Ry     beta= 0.70
     Davidson diagonalization with overlap
     ethr =  1.00E-06,  avg # of iterations =  2.5

     Threshold (ethr) on eigenvalues was too large:
     Diagonalizing with lowered threshold

     Davidson diagonalization with overlap
     ethr =  9.08E-09,  avg # of iterations =  2.0

     negative rho (up, down):  1.552E-04 0.000E+00

     add environment contribution to local potential
     Polarization accuracy = 5.9E-12, # of iterations =  43

     total cpu time spent up to now is     6492.5 secs

     total energy              =   -3435.28393494 Ry
     estimated scf accuracy    <       0.00003463 Ry
     electrostatic embedding   =      -0.02918515 Ry
     cavitation energy         =       0.02096190 Ry
     PV energy                 =      -0.08143931 Ry
     correction to one-el term =     193.06178788 Ry

     iteration #  2     ecut=    50.00 Ry     beta= 0.70
     Davidson diagonalization with overlap
     ethr =  9.46E-09,  avg # of iterations =  1.0

     negative rho (up, down):  1.579E-04 0.000E+00

     add environment contribution to local potential
     Polarization accuracy = 5.9E-12, # of iterations =  43

     total cpu time spent up to now is     6646.6 secs

     total energy              =   -3435.28393603 Ry
     estimated scf accuracy    <       0.00006693 Ry
     electrostatic embedding   =      -0.02916604 Ry
     cavitation energy         =       0.02096390 Ry
     PV energy                 =      -0.08143916 Ry
     correction to one-el term =     193.06981542 Ry

     iteration #  3     ecut=    50.00 Ry     beta= 0.70
     Davidson diagonalization with overlap
     ethr =  9.46E-09,  avg # of iterations =  1.0

     negative rho (up, down):  1.696E-04 0.000E+00

     add environment contribution to local potential
     Polarization accuracy = 5.8E-12, # of iterations =  43

     total cpu time spent up to now is     6795.4 secs

     total energy              =   -3435.28393869 Ry
     estimated scf accuracy    <       0.00000243 Ry
     electrostatic embedding   =      -0.02915662 Ry
     cavitation energy         =       0.02096387 Ry
     PV energy                 =      -0.08143981 Ry
     correction to one-el term =     193.06955803 Ry

     iteration #  4     ecut=    50.00 Ry     beta= 0.70
     Davidson diagonalization with overlap
     ethr =  6.64E-10,  avg # of iterations =  2.0

     negative rho (up, down):  1.718E-04 0.000E+00

     add environment contribution to local potential
     Polarization accuracy = 5.4E-12, # of iterations =  42

     total cpu time spent up to now is     6916.9 secs

     total energy              =   -3435.28393906 Ry
     estimated scf accuracy    <       0.00000185 Ry
     electrostatic embedding   =      -0.02913504 Ry
     cavitation energy         =       0.02096518 Ry
     PV energy                 =      -0.08144048 Ry
     correction to one-el term =     193.07491875 Ry

     iteration #  5     ecut=    50.00 Ry     beta= 0.70
     Davidson diagonalization with overlap
     ethr =  5.06E-10,  avg # of iterations =  1.0

     negative rho (up, down):  1.722E-04 0.000E+00

     add environment contribution to local potential
     Polarization accuracy = 5.8E-12, # of iterations =  43

     total cpu time spent up to now is     7068.0 secs

     total energy              =   -3435.28393918 Ry
     estimated scf accuracy    <       0.00000019 Ry
     electrostatic embedding   =      -0.02912931 Ry
     cavitation energy         =       0.02096550 Ry
     PV energy                 =      -0.08144074 Ry
     correction to one-el term =     193.07624503 Ry

     iteration #  6     ecut=    50.00 Ry     beta= 0.70
     Davidson diagonalization with overlap
     ethr =  5.32E-11,  avg # of iterations =  2.0

     negative rho (up, down):  1.705E-04 0.000E+00

     add environment contribution to local potential
     Polarization accuracy = 5.9E-12, # of iterations =  43

     total cpu time spent up to now is     7195.2 secs

     total energy              =   -3435.28393929 Ry
     estimated scf accuracy    <       0.00000014 Ry
     electrostatic embedding   =      -0.02912350 Ry
     cavitation energy         =       0.02096576 Ry
     PV energy                 =      -0.08144114 Ry
     correction to one-el term =     193.07732463 Ry

     iteration #  7     ecut=    50.00 Ry     beta= 0.70
     Davidson diagonalization with overlap
     ethr =  3.86E-11,  avg # of iterations =  2.0

     negative rho (up, down):  1.679E-04 0.000E+00

     add environment contribution to local potential
     Polarization accuracy = 5.2E-12, # of iterations =  42

     total cpu time spent up to now is     7336.2 secs

     total energy              =   -3435.28393942 Ry
     estimated scf accuracy    <       0.00000007 Ry
     electrostatic embedding   =      -0.02911672 Ry
     cavitation energy         =       0.02096605 Ry
     PV energy                 =      -0.08144166 Ry
     correction to one-el term =     193.07863087 Ry

     iteration #  8     ecut=    50.00 Ry     beta= 0.70
     Davidson diagonalization with overlap
     ethr =  2.02E-11,  avg # of iterations =  1.5

     negative rho (up, down):  1.629E-04 0.000E+00

     add environment contribution to local potential
     Polarization accuracy = 5.9E-12, # of iterations =  43

     total cpu time spent up to now is     7473.6 secs

     total energy              =   -3435.28393951 Ry
     estimated scf accuracy    <       0.00000005 Ry
     electrostatic embedding   =      -0.02911274 Ry
     cavitation energy         =       0.02096619 Ry
     PV energy                 =      -0.08144200 Ry
     correction to one-el term =     193.07934012 Ry

     iteration #  9     ecut=    50.00 Ry     beta= 0.70
     Davidson diagonalization with overlap
     ethr =  1.39E-11,  avg # of iterations =  2.0

     negative rho (up, down):  1.559E-04 0.000E+00

     add environment contribution to local potential
     Polarization accuracy = 5.9E-12, # of iterations =  43

     total cpu time spent up to now is     7630.9 secs

     total energy              =   -3435.28393961 Ry
     estimated scf accuracy    <       0.00000003 Ry
     electrostatic embedding   =      -0.02910852 Ry
     cavitation energy         =       0.02096631 Ry
     PV energy                 =      -0.08144241 Ry
     correction to one-el term =     193.07999613 Ry

     iteration # 10     ecut=    50.00 Ry     beta= 0.70
     Davidson diagonalization with overlap
     ethr =  9.17E-12,  avg # of iterations =  2.0

     negative rho (up, down):  1.511E-04 0.000E+00

     add environment contribution to local potential
     Polarization accuracy = 5.9E-12, # of iterations =  43

     total cpu time spent up to now is     7772.2 secs

     total energy              =   -3435.28393968 Ry
     estimated scf accuracy    <       0.00000001 Ry
     electrostatic embedding   =      -0.02910558 Ry
     cavitation energy         =       0.02096637 Ry
     PV energy                 =      -0.08144277 Ry
     correction to one-el term =     193.08032284 Ry

     iteration # 11     ecut=    50.00 Ry     beta= 0.70
     Davidson diagonalization with overlap
     ethr =  3.70E-12,  avg # of iterations =  1.0

     negative rho (up, down):  1.451E-04 0.000E+00

     add environment contribution to local potential
     Polarization accuracy = 5.9E-12, # of iterations =  43

     total cpu time spent up to now is     7901.9 secs

     total energy              =   -3435.28393972 Ry
[...]
     atom   38 type  1   force =    -0.00002944   -0.00007965    0.01056215
     atom   39 type  1   force =    -0.01687811   -0.00374572    0.00270735
     atom   40 type  1   force =    -0.01774406    0.00092338    0.00346022
     atom   41 type  3   force =     0.00000000    0.00000000    0.00000000
     atom   42 type  3   force =     0.00000000    0.00000000    0.00000000
     atom   43 type  3   force =     0.00000000    0.00000000    0.00000000
     atom   44 type  3   force =     0.00000000    0.00000000    0.00000000
     atom   45 type  3   force =     0.00000000    0.00000000    0.00000000
     atom   46 type  3   force =     0.00000000    0.00000000    0.00000000
     The Hubbard contrib.    to forces
     atom    1 type  1   force =     0.00000000    0.00000000    0.00000000
     atom    2 type  1   force =     0.00000000    0.00000000    0.00000000
     atom    3 type  1   force =     0.00000000    0.00000000    0.00000000
     atom    4 type  1   force =     0.00000000    0.00000000    0.00000000
     atom    5 type  2   force =     0.00000000    0.00000000    0.00000000
     atom    6 type  2   force =     0.00000000    0.00000000    0.00000000
     atom    7 type  1   force =     0.00000000    0.00000000    0.00000000
     atom    8 type  1   force =     0.00000000    0.00000000    0.00000000
     atom    9 type  2   force =     0.00000000    0.00000000    0.00000000
     atom   10 type  2   force =     0.00000000    0.00000000    0.00000000
     atom   11 type  1   force =     0.00000000    0.00000000    0.00000000
     atom   12 type  1   force =     0.00000000    0.00000000    0.00000000
     atom   13 type  1   force =     0.00000000    0.00000000    0.00000000
     atom   14 type  1   force =     0.00000000    0.00000000    0.00000000
     atom   15 type  1   force =     0.00000000    0.00000000    0.00000000
     atom   16 type  1   force =     0.00000000    0.00000000    0.00000000
     atom   17 type  2   force =     0.00000000    0.00000000    0.00000000
     atom   18 type  2   force =     0.00000000    0.00000000    0.00000000
     atom   19 type  1   force =     0.00000000    0.00000000    0.00000000
     atom   20 type  1   force =     0.00000000    0.00000000    0.00000000
     atom   21 type  2   force =     0.00000000    0.00000000    0.00000000
     atom   22 type  2   force =     0.00000000    0.00000000    0.00000000
     atom   23 type  1   force =     0.00000000    0.00000000    0.00000000
     atom   24 type  1   force =     0.00000000    0.00000000    0.00000000
     atom   25 type  1   force =     0.00000000    0.00000000    0.00000000
     atom   26 type  1   force =     0.00000000    0.00000000    0.00000000
     atom   27 type  1   force =     0.00000000    0.00000000    0.00000000
     atom   28 type  1   force =     0.00000000    0.00000000    0.00000000
     atom   29 type  2   force =     0.00000000    0.00000000    0.00000000
     atom   30 type  2   force =     0.00000000    0.00000000    0.00000000
     atom   31 type  1   force =     0.00000000    0.00000000    0.00000000
     atom   32 type  1   force =     0.00000000    0.00000000    0.00000000
     atom   33 type  2   force =     0.00000000    0.00000000    0.00000000
     atom   34 type  2   force =     0.00000000    0.00000000    0.00000000
     atom   35 type  1   force =     0.00000000    0.00000000    0.00000000
     atom   36 type  1   force =     0.00000000    0.00000000    0.00000000
     atom   37 type  1   force =     0.00000000    0.00000000    0.00000000
     atom   38 type  1   force =     0.00000000    0.00000000    0.00000000
     atom   39 type  1   force =     0.00000000    0.00000000    0.00000000
     atom   40 type  1   force =     0.00000000    0.00000000    0.00000000
     atom   41 type  3   force =     0.00000000    0.00000000    0.00000000
     atom   42 type  3   force =     0.00000000    0.00000000    0.00000000
     atom   43 type  3   force =     0.00000000    0.00000000    0.00000000
     atom   44 type  3   force =     0.00000000    0.00000000    0.00000000
     atom   45 type  3   force =     0.00000000    0.00000000    0.00000000
     atom   46 type  3   force =     0.00000000    0.00000000    0.00000000
     The SCF correction term to forces
     atom    1 type  1   force =     0.00000185    0.00000035   -0.00000156
     atom    2 type  1   force =    -0.00000188    0.00000108   -0.00000154
     atom    3 type  1   force =     0.00000144   -0.00000068   -0.00000053
     atom    4 type  1   force =    -0.00000128   -0.00000075   -0.00000073
     atom    5 type  2   force =    -0.00000065   -0.00000126   -0.00000203
     atom    6 type  2   force =     0.00000020   -0.00000081   -0.00000032
     atom    7 type  1   force =    -0.00000073    0.00000012   -0.00000073
     atom    8 type  1   force =     0.00000035   -0.00000005    0.00000061
     atom    9 type  2   force =     0.00000334    0.00000046   -0.00000088
     atom   10 type  2   force =    -0.00000296    0.00000036   -0.00000050
     atom   11 type  1   force =    -0.00000065    0.00000039   -0.00000076
     atom   12 type  1   force =     0.00000039    0.00000047    0.00000044
     atom   13 type  1   force =     0.00000074   -0.00000013   -0.00000013
     atom   14 type  1   force =    -0.00000065    0.00000036   -0.00000202
     atom   15 type  1   force =     0.00000109   -0.00000103   -0.00000036
     atom   16 type  1   force =    -0.00000091   -0.00000140    0.00000002
     atom   17 type  2   force =     0.00000048    0.00000125   -0.00000005
     atom   18 type  2   force =    -0.00000084    0.00000180   -0.00000005
     atom   19 type  1   force =    -0.00000115    0.00000095   -0.00000002
     atom   20 type  1   force =     0.00000155    0.00000012   -0.00000002
     atom   21 type  2   force =    -0.00000059   -0.00000235   -0.00000005
     atom   22 type  2   force =     0.00000047   -0.00000215   -0.00000006
     atom   23 type  1   force =    -0.00000139   -0.00000106   -0.00000002
     atom   24 type  1   force =     0.00000176   -0.00000027   -0.00000002
     atom   25 type  1   force =     0.00000109   -0.00000103    0.00000032
     atom   26 type  1   force =    -0.00000091   -0.00000139   -0.00000006
     atom   27 type  1   force =     0.00000074   -0.00000013    0.00000010
     atom   28 type  1   force =    -0.00000065    0.00000036    0.00000200
     atom   29 type  2   force =    -0.00000065   -0.00000126    0.00000201
     atom   30 type  2   force =     0.00000020   -0.00000081    0.00000029
     atom   31 type  1   force =    -0.00000072    0.00000011    0.00000072
     atom   32 type  1   force =     0.00000035   -0.00000005   -0.00000062
     atom   33 type  2   force =     0.00000334    0.00000046    0.00000085
     atom   34 type  2   force =    -0.00000296    0.00000036    0.00000048
     atom   35 type  1   force =    -0.00000065    0.00000039    0.00000075
     atom   36 type  1   force =     0.00000039    0.00000047   -0.00000045
     atom   37 type  1   force =     0.00000144   -0.00000068    0.00000054
     atom   38 type  1   force =    -0.00000128   -0.00000075    0.00000073
     atom   39 type  1   force =     0.00000185    0.00000035    0.00000157
     atom   40 type  1   force =    -0.00000188    0.00000108    0.00000155
     atom   41 type  3   force =     0.00000003    0.00000004   -0.00000010
     atom   42 type  3   force =     0.00000003    0.00000004    0.00000011
     atom   43 type  3   force =    -0.00000010    0.00000008   -0.00000026
     atom   44 type  3   force =    -0.00000010    0.00000008    0.00000027
     atom   45 type  3   force =     0.00000018    0.00000002   -0.00000017
     atom   46 type  3   force =     0.00000018    0.00000002    0.00000017

     Total force =     0.001429     Total SCF correction =     0.000012
     Energy error            =      4.0E-06 Ry
     Gradient error          =      4.2E-04 Ry/Bohr

     number of scf cycles    =  38
     number of bfgs steps    =  37

     energy             old  =   -3435.2869578026 Ry
     energy             new  =   -3435.2869617629 Ry

     CASE: energy            _new < energy            _old

     new trust radius        =       0.0043302626 bohr
     new conv_thr            =            1.0E-11 Ry


ATOMIC_POSITIONS (crystal)
O            -0.0080723063        0.4477368086        0.2697270986
O             0.4909952089        0.4965910928        0.2691258659
O            -0.0010302374        0.0128230377        0.2984315441
O             0.4995170936        0.0024034736        0.3086013071
Ru            0.2547904612        0.0016587366        0.3558031322
Ru            0.7440752143        0.0018607955        0.3558331883
O             0.2514493252        0.3137598222        0.3599411645
O             0.7473488502        0.3136763909        0.3589208824
Ru           -0.0011835781        0.4998593456        0.3580898264
Ru            0.4993409971        0.5024217964        0.3560525421
O             0.2444290675        0.6889017744        0.3544212354
O             0.7538103012        0.6886041929        0.3550532404
O            -0.0003489746        0.0003608360        0.4114271934
O             0.4995970771       -0.0032026953        0.4117920728
O             0.0035308497        0.5032423020        0.4458898068
O             0.5030564071        0.5066631272        0.4443984791
Ru            0.0003436104        0.0018818352        0.5000010000
Ru            0.5003966813        0.0020187770        0.5000010000
O             0.2504124525        0.1906884683        0.5000010000
O             0.7498062705        0.1904575341        0.5000010000
Ru            0.2536218098        0.5025010695        0.5000010000
Ru            0.7503851452        0.5025316104        0.5000010000
O             0.2497102740        0.8144607787        0.5000010000
O             0.7509120669        0.8142524207        0.5000010000
O             0.0035308497        0.5032423020        0.5541111932
O             0.5030564071        0.5066631272        0.5556025209
O            -0.0003489746        0.0003608360        0.5885738066
O             0.4995970771       -0.0032026953        0.5882089272
Ru            0.2547904612        0.0016587366        0.6441978678
Ru            0.7440752143        0.0018607955        0.6441678117
O             0.2514493252        0.3137598222        0.6400598355
O             0.7473488502        0.3136763909        0.6410801176
Ru           -0.0011835781        0.4998593456        0.6419111736
Ru            0.4993409971        0.5024217964        0.6439484579
O             0.2444290675        0.6889017744        0.6455797646
O             0.7538103012        0.6886041929        0.6449477596
O            -0.0010302374        0.0128230377        0.7015704559
O             0.4995170936        0.0024034736        0.6914006929
O            -0.0080723063        0.4477368086        0.7302739014
O             0.4909952089        0.4965910928        0.7308751341
H             0.1251791451        0.4820174967        0.2510735662
H             0.1251791451        0.4820174967        0.7489264338
H             0.6291881764        0.4879107527        0.2511916876
H             0.6291881764        0.4879107527        0.7488083124
H            -0.0031972336        0.1575316665        0.2764329463
H            -0.0031972336        0.1575316665        0.7235670537



     Writing config-only to output data dir /storage/home/mgm6007/ixd4/Maria/Strain2_Files/RuO2-110-0-012/RuO2-110-0-012.save/
     NEW-OLD atomic charge density approx. for the potential

     Check: negative core charge=   -0.000001

     negative rho (up, down):  1.466E-04 0.000E+00

     add environment contribution to local potential
     Polarization accuracy = 8.8E-12, # of iterations =  44

     total cpu time spent up to now is   270559.4 secs

     per-process dynamical memory:   217.1 Mb

     Self-consistent Calculation

     iteration #  1     ecut=    50.00 Ry     beta= 0.70
     Davidson diagonalization with overlap
     ethr =  1.00E-06,  avg # of iterations =  2.5

     Threshold (ethr) on eigenvalues was too large:
     Diagonalizing with lowered threshold

     Davidson diagonalization with overlap
     ethr =  1.29E-09,  avg # of iterations =  3.5

     negative rho (up, down):  1.416E-04 0.000E+00

     add environment contribution to local potential
     Polarization accuracy = 8.8E-12, # of iterations =  44

     total cpu time spent up to now is   271316.2 secs

     total energy              =   -3435.28696330 Ry
     estimated scf accuracy    <       0.00000494 Ry
     electrostatic embedding   =      -0.02453019 Ry
     cavitation energy         =       0.02106771 Ry
     PV energy                 =      -0.08125465 Ry
     correction to one-el term =     195.27174619 Ry

     iteration #  2     ecut=    50.00 Ry     beta= 0.70
     Davidson diagonalization with overlap
     ethr =  1.35E-09,  avg # of iterations =  2.0

     negative rho (up, down):  1.397E-04 0.000E+00

     add environment contribution to local potential
     Polarization accuracy = 8.8E-12, # of iterations =  44

     total cpu time spent up to now is   271656.5 secs

     total energy              =   -3435.28696400 Ry
     estimated scf accuracy    <       0.00000281 Ry
     electrostatic embedding   =      -0.02453688 Ry
     cavitation energy         =       0.02106772 Ry
     PV energy                 =      -0.08125437 Ry
     correction to one-el term =     195.26828638 Ry

     iteration #  3     ecut=    50.00 Ry     beta= 0.70
     Davidson diagonalization with overlap
     ethr =  7.67E-10,  avg # of iterations =  1.0

     negative rho (up, down):  1.366E-04 0.000E+00

     add environment contribution to local potential
     Polarization accuracy = 8.8E-12, # of iterations =  44

     total cpu time spent up to now is   271975.2 secs

     total energy              =   -3435.28696436 Ry
     estimated scf accuracy    <       0.00000217 Ry
     electrostatic embedding   =      -0.02454018 Ry
     cavitation energy         =       0.02106776 Ry
     PV energy                 =      -0.08125411 Ry
     correction to one-el term =     195.26724099 Ry

     iteration #  4     ecut=    50.00 Ry     beta= 0.70
     Davidson diagonalization with overlap
     ethr =  5.93E-10,  avg # of iterations =  1.5

     negative rho (up, down):  1.364E-04 0.000E+00

     add environment contribution to local potential
     Polarization accuracy = 8.9E-12, # of iterations =  44

     total cpu time spent up to now is   272289.3 secs

     total energy              =   -3435.28696474 Ry
     estimated scf accuracy    <       0.00000006 Ry
     electrostatic embedding   =      -0.02454522 Ry
     cavitation energy         =       0.02106771 Ry
     PV energy                 =      -0.08125380 Ry
     correction to one-el term =     195.26508362 Ry

     iteration #  5     ecut=    50.00 Ry     beta= 0.70
     Davidson diagonalization with overlap
     ethr =  1.69E-11,  avg # of iterations =  2.0

     negative rho (up, down):  1.366E-04 0.000E+00

     add environment contribution to local potential
     Polarization accuracy = 8.8E-12, # of iterations =  44

     total cpu time spent up to now is   272601.1 secs

     total energy              =   -3435.28696478 Ry
     estimated scf accuracy    <       0.00000004 Ry
     electrostatic embedding   =      -0.02454648 Ry
     cavitation energy         =       0.02106766 Ry
     PV energy                 =      -0.08125370 Ry
     correction to one-el term =     195.26476321 Ry

     iteration #  6     ecut=    50.00 Ry     beta= 0.70
     Davidson diagonalization with overlap
     ethr =  1.10E-11,  avg # of iterations =  1.5

     negative rho (up, down):  1.374E-04 0.000E+00

     add environment contribution to local potential
     Polarization accuracy = 8.8E-12, # of iterations =  44

     total cpu time spent up to now is   272831.0 secs

     total energy              =   -3435.28696480 Ry
     estimated scf accuracy    <       0.00000002 Ry
     electrostatic embedding   =      -0.02454799 Ry
     cavitation energy         =       0.02106762 Ry
     PV energy                 =      -0.08125357 Ry
     correction to one-el term =     195.26451442 Ry

     iteration #  7     ecut=    50.00 Ry     beta= 0.70
     Davidson diagonalization with overlap
     ethr =  4.91E-12,  avg # of iterations =  2.0

     negative rho (up, down):  1.386E-04 0.000E+00

     add environment contribution to local potential
     Polarization accuracy = 8.9E-12, # of iterations =  44

     total cpu time spent up to now is   272962.2 secs

     total energy              =   -3435.28696484 Ry
     estimated scf accuracy    <       0.00000001 Ry
     electrostatic embedding   =      -0.02454989 Ry
     cavitation energy         =       0.02106754 Ry
     PV energy                 =      -0.08125342 Ry
     correction to one-el term =     195.26420791 Ry

     iteration #  8     ecut=    50.00 Ry     beta= 0.70
     Davidson diagonalization with overlap
     ethr =  2.80E-12,  avg # of iterations =  1.5

     negative rho (up, down):  1.406E-04 0.000E+00

     add environment contribution to local potential
     Polarization accuracy = 8.3E-12, # of iterations =  45

     total cpu time spent up to now is   273108.3 secs

     total energy              =   -3435.28696486 Ry
     estimated scf accuracy    <          7.7E-09 Ry
     electrostatic embedding   =      -0.02455086 Ry
     cavitation energy         =       0.02106750 Ry
     PV energy                 =      -0.08125333 Ry
     correction to one-el term =     195.26412244 Ry

     iteration #  9     ecut=    50.00 Ry     beta= 0.70
     Davidson diagonalization with overlap
     ethr =  2.09E-12,  avg # of iterations =  2.0

     negative rho (up, down):  1.423E-04 0.000E+00

     add environment contribution to local potential
     Polarization accuracy = 8.9E-12, # of iterations =  44

     total cpu time spent up to now is   273248.9 secs

     total energy              =   -3435.28696487 Ry
     estimated scf accuracy    <          2.3E-09 Ry
     electrostatic embedding   =      -0.02455186 Ry
     cavitation energy         =       0.02106746 Ry
     PV energy                 =      -0.08125323 Ry
     correction to one-el term =     195.26410933 Ry

     iteration # 10     ecut=    50.00 Ry     beta= 0.70
     Davidson diagonalization with overlap
     ethr =  6.22E-13,  avg # of iterations =  1.0

     negative rho (up, down):  1.433E-04 0.000E+00

     add environment contribution to local potential
     Polarization accuracy = 8.9E-12, # of iterations =  44

     total cpu time spent up to now is   273514.8 secs

     total energy              =   -3435.28696488 Ry
     estimated scf accuracy    <          1.2E-09 Ry
     electrostatic embedding   =      -0.02455218 Ry
     cavitation energy         =       0.02106744 Ry
     PV energy                 =      -0.08125318 Ry
     correction to one-el term =     195.26418665 Ry

     iteration # 11     ecut=    50.00 Ry     beta= 0.70
     Davidson diagonalization with overlap
     ethr =  3.20E-13,  avg # of iterations =  1.0

     negative rho (up, down):  1.445E-04 0.000E+00

     add environment contribution to local potential
     Polarization accuracy = 8.9E-12, # of iterations =  44

     total cpu time spent up to now is   273836.9 secs

     total energy              =   -3435.28696488 Ry
     estimated scf accuracy    <          4.7E-10 Ry
     electrostatic embedding   =      -0.02455226 Ry
     cavitation energy         =       0.02106743 Ry
     PV energy                 =      -0.08125315 Ry
     correction to one-el term =     195.26425718 Ry

     iteration # 12     ecut=    50.00 Ry     beta= 0.70
     Davidson diagonalization with overlap
     ethr =  1.28E-13,  avg # of iterations =  1.0

     negative rho (up, down):  1.461E-04 0.000E+00

     add environment contribution to local potential
