
     Program PWSCF v.7.2 starts on 21Jul2023 at 11:31:16 
        Git branch: heads/qe-7.2
        Last git commit: b4c5e8deeb7d1863e7553a87b45f8d22c21926a5
        Last git commit date: Mon Mar 27 16:12:09 2023 +0000
        Last git commit subject: Merge branch 'merge_fix_hubbard' into 'develop'

     This program is part of the open-source Quantum ESPRESSO suite
     for quantum simulation of materials; please cite
         "P. Giannozzi et al., J. Phys.:Condens. Matter 21 395502 (2009);
         "P. Giannozzi et al., J. Phys.:Condens. Matter 29 465901 (2017);
         "P. Giannozzi et al., J. Chem. Phys. 152 154105 (2020);
          URL http://www.quantum-espresso.org", 
     in publications or presentations arising from this work. More details at
     http://www.quantum-espresso.org/quote

     Parallel version (MPI), running on    20 processors

     MPI processes distributed on     1 nodes
     109399 MiB available memory on the printing compute node when the environment starts
 
     Reading input from RuO2-110-0-02345.in

     Current dimensions of program PWSCF are:
     Max number of different atomic species (ntypx) = 10
     Max number of k-points (npk) =  40000
     Max angular momentum in pseudopotentials (lmaxx) =  4
 
     Reading input from environ.in:
     * Environ restarting
     * setting up water environment
     * using electronic solvent mode
     * setting boundary derivatives method to SCCS default
     
     file O.pbe-n-kjpaw_psl.0.1.UPF: wavefunction(s)  2P renormalized
     Message from routine setup:
     using ibrav=0 with symmetry is DISCOURAGED, use correct ibrav instead
 
     R & G space division:  proc/nbgrp/npool/nimage =      20
     Subspace diagonalization in iterative solution of the eigenvalue problem:
     one sub-group per band group will be used
     scalapack distributed-memory algorithm (size of sub-group:  2*  2 procs)

 
     Parallelization info
     --------------------
     sticks:   dense  smooth     PW     G-vecs:    dense   smooth      PW
     Min         282     113     29                56190    14217    1913
     Max         283     114     30                56201    14227    1932
     Sum        5657    2263    593              1123933   284439   38425
 
     Using Slab Decomposition
 


     bravais-lattice index     =            0
     lattice parameter (alat)  =      12.1041  a.u.
     unit-cell volume          =    5954.5483 (a.u.)^3
     number of atoms/cell      =           50
     number of atomic types    =            3
     number of electrons       =       370.00
     number of Kohn-Sham states=          222
     kinetic-energy cutoff     =      50.0000  Ry
     charge density cutoff     =     500.0000  Ry
     scf convergence threshold =      1.0E-09
     mixing beta               =       0.7000
     number of iterations used =            8  local-TF  mixing
     energy convergence thresh.=      1.0E-04
     force convergence thresh. =      1.0E-04
     Exchange-correlation= PBE
                           (   1   4   3   4   0   0   0)
     nstep                     =          200


     ================================================================================
 
                                  Environ Setup Summary

     ================================================================================
 
     Please cite

          O. Andreussi, I. Dabo and N. Marzari, J. Chem. Phys. 136, 064102 (2012)

     in publications or presentations arising from this work.

     ================================================================================
 
     Parameters
     ==========

     compensation onset threshold      =               0.1000E+00
     static permittivity               =                    78.30
     surface tension in input (dyn/cm) =                    47.90
     surface tension in internal units =               0.6153E-04
     external pressure in input (GPa)  =                    -0.36
     external pressure in inter. units =              -0.2447E-04

     Solvent Boundary
     ================

     solvent mode                      =               electronic
     derivatives method                =                    chain
     numerical core for derivatives    =                      fft
     switching function adopted        =                     SCCS
     density limit for vacuum region   =               0.5000E-02
     density limit for bulk solvent    =               0.1000E-03

     Electrostatic Setup
     ===================

     electrostatic problem to solve    =              generalized
     numerical solver adopted          =                       cg
     type of auxiliary density adopted =                     none
     numerical core for poisson        =                      fft
     type of pbc corrections           =                parabolic
     numerical core for corrections    =                      1da

     ================================================================================
 

     celldm(1)=  12.104053  celldm(2)=   0.000000  celldm(3)=   0.000000
     celldm(4)=   0.000000  celldm(5)=   0.000000  celldm(6)=   0.000000

     crystal axes: (cart. coord. in units of alat)
               a(1) = (   1.000000   0.000000   0.000000 )  
               a(2) = (   0.000000   0.971735   0.000000 )  
               a(3) = (   0.000000   0.000000   3.455479 )  

     reciprocal axes: (cart. coord. in units 2 pi/alat)
               b(1) = (  1.000000  0.000000  0.000000 )  
               b(2) = (  0.000000  1.029087  0.000000 )  
               b(3) = (  0.000000  0.000000  0.289395 )  


     PseudoPot. # 1 for O  read from file:
     /gpfs/group/ixd4/default/Simon/pseudopotentials/materialscloud/SSSP_1.3.0_PBE_efficiency/O.pbe-n-kjpaw_psl.0.1.UPF
     MD5 check sum: 0234752ac141de4415c5fc33072bef88
     Pseudo is Projector augmented-wave + core cor, Zval =  6.0
     Generated using "atomic" code by A. Dal Corso  v.5.0.99 svn rev. 10869
     Shape of augmentation charge: BESSEL
     Using radial grid of 1095 points,  4 beta functions with: 
                l(1) =   0
                l(2) =   0
                l(3) =   1
                l(4) =   1
     Q(r) pseudized with 0 coefficients 


     PseudoPot. # 2 for Ru read from file:
     /gpfs/group/ixd4/default/Simon/pseudopotentials/materialscloud/SSSP_1.3.0_PBE_efficiency/Ru_ONCV_PBE-1.0.oncvpsp.upf
     MD5 check sum: be037bb81c227cfb9b1461a9f099f4bd
     Pseudo is Norm-conserving, Zval = 16.0
     Generated using ONCVPSP code by D. R. Hamann
     Using radial grid of 1458 points,  6 beta functions with: 
                l(1) =   0
                l(2) =   0
                l(3) =   1
                l(4) =   1
                l(5) =   2
                l(6) =   2

     PseudoPot. # 3 for H  read from file:
     /gpfs/group/ixd4/default/Simon/pseudopotentials/materialscloud/SSSP_1.3.0_PBE_efficiency/H.pbe-rrkjus_psl.1.0.0.UPF
     MD5 check sum: f52b6d4d1c606e5624b1dc7b2218f220
     Pseudo is Ultrasoft, Zval =  1.0
     Generated using "atomic" code by A. Dal Corso  v.5.1
     Using radial grid of  929 points,  2 beta functions with: 
                l(1) =   0
                l(2) =   0
     Q(r) pseudized with 0 coefficients 


     atomic species   valence    mass     pseudopotential
        O              6.00    15.99940     O ( 1.00)
        Ru            16.00   101.07000     Ru( 1.00)
        H              1.00     1.00794     H ( 1.00)

      4 Sym. Ops. (no inversion) found



   Cartesian axes

     site n.     atom                  positions (alat units)
         1           O   tau(   1) = (   0.0235556   0.4858677   0.9195613  )
         2           O   tau(   2) = (   0.4743534   0.4858677   0.9310400  )
         3           O   tau(   3) = (  -0.0021720   0.0000000   0.9940491  )
         4           O   tau(   4) = (   0.4965405   0.0000000   0.9927935  )
         5           Ru  tau(   5) = (   0.2472191   0.0000000   1.2473516  )
         6           Ru  tau(   6) = (   0.7470529   0.0000000   1.2422708  )
         7           O   tau(   7) = (   0.2444624   0.2920390   1.2330047  )
         8           O   tau(   8) = (   0.7508729   0.2955679   1.2227371  )
         9           Ru  tau(   9) = (  -0.0006769   0.4858677   1.2347004  )
        10           Ru  tau(  10) = (   0.4987729   0.4858677   1.2104590  )
        11           O   tau(  11) = (   0.2444624   0.6796964   1.2330047  )
        12           O   tau(  12) = (   0.7508729   0.6761675   1.2227371  )
        13           O   tau(  13) = (  -0.0047420   0.0000000   1.4262708  )
        14           O   tau(  14) = (   0.4987634   0.0000000   1.4260968  )
        15           O   tau(  15) = (  -0.0027227   0.4858677   1.5395107  )
        16           O   tau(  16) = (   0.4963543   0.4858677   1.5205230  )
        17           Ru  tau(  17) = (  -0.0050997   0.0000000   1.7277432  )
        18           Ru  tau(  18) = (   0.4989836   0.0000000   1.7277432  )
        19           O   tau(  19) = (   0.2486404   0.1872584   1.7277432  )
        20           O   tau(  20) = (   0.7451737   0.1915357   1.7277432  )
        21           Ru  tau(  21) = (   0.2537672   0.4858677   1.7277432  )
        22           Ru  tau(  22) = (   0.7414777   0.4858677   1.7277432  )
        23           O   tau(  23) = (   0.2486404   0.7844780   1.7277432  )
        24           O   tau(  24) = (   0.7451737   0.7802006   1.7277432  )
        25           O   tau(  25) = (  -0.0027227   0.4858677   1.9159723  )
        26           O   tau(  26) = (   0.4963543   0.4858677   1.9349600  )
        27           O   tau(  27) = (  -0.0047420   0.0000000   2.0292122  )
        28           O   tau(  28) = (   0.4987634   0.0000000   2.0293862  )
        29           Ru  tau(  29) = (   0.2472191   0.0000000   2.2081313  )
        30           Ru  tau(  30) = (   0.7470529   0.0000000   2.2132121  )
        31           O   tau(  31) = (   0.2444624   0.2920390   2.2224783  )
        32           O   tau(  32) = (   0.7508729   0.2955679   2.2327459  )
        33           Ru  tau(  33) = (  -0.0006769   0.4858677   2.2207825  )
        34           Ru  tau(  34) = (   0.4987729   0.4858677   2.2450239  )
        35           O   tau(  35) = (   0.2444624   0.6796964   2.2224783  )
        36           O   tau(  36) = (   0.7508729   0.6761675   2.2327459  )
        37           O   tau(  37) = (  -0.0021720   0.0000000   2.4614373  )
        38           O   tau(  38) = (   0.4965405   0.0000000   2.4626929  )
        39           O   tau(  39) = (   0.0235556   0.4858677   2.5359216  )
        40           O   tau(  40) = (   0.4743534   0.4858677   2.5244429  )
        41           H   tau(  41) = (   0.1775522   0.4858677   0.8998376  )
        42           H   tau(  42) = (   0.1775522   0.4858677   2.5556419  )
        43           H   tau(  43) = (  -0.0010069   0.1196696   0.9067528  )
        44           H   tau(  44) = (  -0.0010069   0.1196696   2.5487267  )
        45           H   tau(  45) = (   0.4953745   0.1184129   0.9041681  )
        46           H   tau(  46) = (   0.4953745   0.1184129   2.5513114  )
        47           H   tau(  47) = (  -0.0010069   0.8520658   0.9067528  )
        48           H   tau(  48) = (  -0.0010069   0.8520658   2.5487267  )
        49           H   tau(  49) = (   0.4953745   0.8533225   0.9041681  )
        50           H   tau(  50) = (   0.4953745   0.8533225   2.5513114  )

     number of k points=     1  Marzari-Vanderbilt smearing, width (Ry)=  0.0300
                       cart. coord. in units 2pi/alat
        k(    1) = (   0.2500000   0.2572717   0.0000000), wk =   2.0000000

     Dense  grid:  1123933 G-vectors     FFT dimensions: (  90,  90, 300)

     Smooth grid:   284439 G-vectors     FFT dimensions: (  60,  54, 192)

     Estimated max dynamical RAM per process >     173.19 MB

     Estimated total dynamical RAM >       3.38 GB

     Check: negative core charge=   -0.000001

     Initial potential from superposition of free atoms

     starting charge     369.9932, renormalised to     370.0000

     add environment contribution to local potential
     Polarization accuracy = 2.2E-12, # of iterations =  24

     negative rho (up, down):  2.833E-05 0.000E+00
     Starting wfcs are  242 randomized atomic wfcs
     Checking if some PAW data can be deallocated... 

     total cpu time spent up to now is      963.6 secs

     per-process dynamical memory:   145.8 Mb

     Self-consistent Calculation

     iteration #  1     ecut=    50.00 Ry     beta= 0.70
     Davidson diagonalization with overlap
     ethr =  1.00E-02,  avg # of iterations =  3.0

     total cpu time spent up to now is     1233.8 secs

     total energy              =   -3438.00444732 Ry
     estimated scf accuracy    <       9.30669575 Ry
     electrostatic embedding   =      -0.00175257 Ry
     cavitation energy         =       0.01915923 Ry
     PV energy                 =      -0.08912427 Ry
     correction to one-el term =     221.75973132 Ry

     iteration #  2     ecut=    50.00 Ry     beta= 0.70
     Davidson diagonalization with overlap
     ethr =  2.52E-03,  avg # of iterations =  2.0

     total cpu time spent up to now is     1547.5 secs

     total energy              =   -3439.89349440 Ry
     estimated scf accuracy    <       2.77041363 Ry
     electrostatic embedding   =      -0.00305701 Ry
     cavitation energy         =       0.01903036 Ry
     PV energy                 =      -0.09040148 Ry
     correction to one-el term =     221.76377501 Ry

     iteration #  3     ecut=    50.00 Ry     beta= 0.70
     Davidson diagonalization with overlap
     ethr =  7.49E-04,  avg # of iterations =  2.0

     total cpu time spent up to now is     1853.5 secs

     total energy              =   -3440.02013455 Ry
     estimated scf accuracy    <       0.59904346 Ry
     electrostatic embedding   =      -0.00363830 Ry
     cavitation energy         =       0.01909506 Ry
     PV energy                 =      -0.09081978 Ry
     correction to one-el term =     221.76535790 Ry

     iteration #  4     ecut=    50.00 Ry     beta= 0.70
     Davidson diagonalization with overlap
     ethr =  1.62E-04,  avg # of iterations =  5.0

     total cpu time spent up to now is     2139.6 secs

     total energy              =   -3440.06222977 Ry
     estimated scf accuracy    <       1.56206923 Ry
     electrostatic embedding   =      -0.00396970 Ry
     cavitation energy         =       0.01932539 Ry
     PV energy                 =      -0.09056204 Ry
     correction to one-el term =     221.76588217 Ry

     iteration #  5     ecut=    50.00 Ry     beta= 0.70
     Davidson diagonalization with overlap
     ethr =  1.62E-04,  avg # of iterations =  1.0

     total cpu time spent up to now is     2439.8 secs

     total energy              =   -3440.02472516 Ry
     estimated scf accuracy    <       0.74412963 Ry
     electrostatic embedding   =      -0.00430360 Ry
     cavitation energy         =       0.01964874 Ry
     PV energy                 =      -0.09026546 Ry
     correction to one-el term =     221.76642797 Ry

     iteration #  6     ecut=    50.00 Ry     beta= 0.70
     Davidson diagonalization with overlap
     ethr =  1.62E-04,  avg # of iterations =  1.0

     total cpu time spent up to now is     2702.7 secs

     total energy              =   -3440.00539974 Ry
     estimated scf accuracy    <       0.36516122 Ry
     electrostatic embedding   =      -0.00459421 Ry
     cavitation energy         =       0.02051226 Ry
     PV energy                 =      -0.08882382 Ry
     correction to one-el term =     221.76635981 Ry

     iteration #  7     ecut=    50.00 Ry     beta= 0.70
     Davidson diagonalization with overlap
     ethr =  9.87E-05,  avg # of iterations =  2.0

     total cpu time spent up to now is     2971.9 secs

     total energy              =   -3439.99579327 Ry
     estimated scf accuracy    <       0.17462147 Ry
     electrostatic embedding   =      -0.00448520 Ry
     cavitation energy         =       0.02121088 Ry
     PV energy                 =      -0.08704811 Ry
     correction to one-el term =     221.76537533 Ry

     iteration #  8     ecut=    50.00 Ry     beta= 0.70
     Davidson diagonalization with overlap
     ethr =  4.72E-05,  avg # of iterations = 10.0

     add environment contribution to local potential
     Polarization accuracy = 4.7E-12, # of iterations =  45

     total cpu time spent up to now is     3297.4 secs

     total energy              =   -3439.99285565 Ry
     estimated scf accuracy    <       0.05930049 Ry
     electrostatic embedding   =      -0.00414396 Ry
     cavitation energy         =       0.02193918 Ry
     PV energy                 =      -0.08526882 Ry
     correction to one-el term =     221.76379477 Ry

     iteration #  9     ecut=    50.00 Ry     beta= 0.70
     Davidson diagonalization with overlap
     ethr =  1.60E-05,  avg # of iterations =  9.0

     total cpu time spent up to now is     3566.1 secs

     total energy              =   -3440.07762542 Ry
     estimated scf accuracy    <       0.26086833 Ry
     electrostatic embedding   =      -0.09330320 Ry
     cavitation energy         =       0.02170142 Ry
     PV energy                 =      -0.08486428 Ry
     correction to one-el term =     160.77398635 Ry

     iteration # 10     ecut=    50.00 Ry     beta= 0.70
     Davidson diagonalization with overlap
     ethr =  1.60E-05,  avg # of iterations =  1.0

     total cpu time spent up to now is     3852.2 secs

     total energy              =   -3440.06739840 Ry
     estimated scf accuracy    <       0.18539082 Ry
     electrostatic embedding   =      -0.09354927 Ry
     cavitation energy         =       0.02167443 Ry
     PV energy                 =      -0.08486923 Ry
     correction to one-el term =     160.77472966 Ry

     iteration # 11     ecut=    50.00 Ry     beta= 0.70
     Davidson diagonalization with overlap
     ethr =  1.60E-05,  avg # of iterations =  1.0

     add environment contribution to local potential
     Polarization accuracy = 5.0E-12, # of iterations =  43

     total cpu time spent up to now is     4165.4 secs

     total energy              =   -3440.06271122 Ry
     estimated scf accuracy    <       0.05444901 Ry
     electrostatic embedding   =      -0.09500236 Ry
     cavitation energy         =       0.02155090 Ry
     PV energy                 =      -0.08486813 Ry
     correction to one-el term =     160.77930483 Ry

     iteration # 12     ecut=    50.00 Ry     beta= 0.70
     Davidson diagonalization with overlap
     ethr =  1.47E-05,  avg # of iterations =  4.0

     negative rho (up, down):  6.482E-07 0.000E+00

     add environment contribution to local potential
     Polarization accuracy = 4.6E-12, # of iterations =  43

     total cpu time spent up to now is     4456.8 secs

     total energy              =   -3440.06356684 Ry
     estimated scf accuracy    <       0.02970159 Ry
     electrostatic embedding   =      -0.10076106 Ry
     cavitation energy         =       0.02131331 Ry
     PV energy                 =      -0.08491524 Ry
     correction to one-el term =     162.22796535 Ry

     iteration # 13     ecut=    50.00 Ry     beta= 0.70
     Davidson diagonalization with overlap
     ethr =  8.03E-06,  avg # of iterations =  4.0

     negative rho (up, down):  1.531E-04 0.000E+00

     add environment contribution to local potential
     Polarization accuracy = 9.7E-12, # of iterations =  42

     total cpu time spent up to now is     4806.2 secs

     total energy              =   -3440.06946345 Ry
     estimated scf accuracy    <       0.01554157 Ry
     electrostatic embedding   =      -0.10978545 Ry
     cavitation energy         =       0.02112643 Ry
     PV energy                 =      -0.08498216 Ry
     correction to one-el term =     163.51451216 Ry

     iteration # 14     ecut=    50.00 Ry     beta= 0.70
     Davidson diagonalization with overlap
     ethr =  4.20E-06,  avg # of iterations =  5.0

     negative rho (up, down):  5.854E-05 0.000E+00

     add environment contribution to local potential
     Polarization accuracy = 3.5E-12, # of iterations =  42

     total cpu time spent up to now is     5024.6 secs

     total energy              =   -3440.06973013 Ry
     estimated scf accuracy    <       0.02962526 Ry
     electrostatic embedding   =      -0.11282075 Ry
     cavitation energy         =       0.02106044 Ry
     PV energy                 =      -0.08503381 Ry
     correction to one-el term =     164.12800237 Ry

     iteration # 15     ecut=    50.00 Ry     beta= 0.70
     Davidson diagonalization with overlap
     c_bands:  1 eigenvalues not converged
     ethr =  4.20E-06,  avg # of iterations = 20.0

     add environment contribution to local potential
     Polarization accuracy = 2.7E-12, # of iterations =  42

     total cpu time spent up to now is     5283.2 secs

     total energy              =   -3440.06941596 Ry
     estimated scf accuracy    <       0.02001382 Ry
     electrostatic embedding   =      -0.11079415 Ry
     cavitation energy         =       0.02100433 Ry
     PV energy                 =      -0.08515094 Ry
     correction to one-el term =     165.11534597 Ry

     iteration # 16     ecut=    50.00 Ry     beta= 0.70
     Davidson diagonalization with overlap
     ethr =  4.20E-06,  avg # of iterations = 13.0

     add environment contribution to local potential
     Polarization accuracy = 8.9E-12, # of iterations =  42

     total cpu time spent up to now is     5607.3 secs

     total energy              =   -3440.07016348 Ry
     estimated scf accuracy    <       0.00271978 Ry
     electrostatic embedding   =      -0.10590447 Ry
     cavitation energy         =       0.02099762 Ry
     PV energy                 =      -0.08523584 Ry
     correction to one-el term =     165.89601094 Ry

     iteration # 17     ecut=    50.00 Ry     beta= 0.70
     Davidson diagonalization with overlap
     ethr =  7.35E-07,  avg # of iterations = 12.0

     negative rho (up, down):  8.783E-06 0.000E+00

     add environment contribution to local potential
     Polarization accuracy = 9.8E-12, # of iterations =  41

     total cpu time spent up to now is     5935.0 secs

     total energy              =   -3440.07075507 Ry
     estimated scf accuracy    <       0.00047830 Ry
     electrostatic embedding   =      -0.10028751 Ry
     cavitation energy         =       0.02096379 Ry
     PV energy                 =      -0.08533698 Ry
     correction to one-el term =     167.01915204 Ry

     iteration # 18     ecut=    50.00 Ry     beta= 0.70
     Davidson diagonalization with overlap
     ethr =  1.29E-07,  avg # of iterations = 10.0

     negative rho (up, down):  7.683E-04 0.000E+00

     add environment contribution to local potential
     Polarization accuracy = 1.5E-12, # of iterations =  42

     total cpu time spent up to now is     6250.3 secs

     total energy              =   -3440.07082798 Ry
     estimated scf accuracy    <       0.00016605 Ry
     electrostatic embedding   =      -0.09931261 Ry
     cavitation energy         =       0.02095014 Ry
     PV energy                 =      -0.08534237 Ry
     correction to one-el term =     167.44823706 Ry

     iteration # 19     ecut=    50.00 Ry     beta= 0.70
     Davidson diagonalization with overlap
     ethr =  4.49E-08,  avg # of iterations =  5.0

     negative rho (up, down):  8.875E-04 0.000E+00

     add environment contribution to local potential
     Polarization accuracy = 1.6E-12, # of iterations =  42

     total cpu time spent up to now is     6580.5 secs

     total energy              =   -3440.07084076 Ry
     estimated scf accuracy    <       0.00007701 Ry
     electrostatic embedding   =      -0.09875753 Ry
     cavitation energy         =       0.02094466 Ry
     PV energy                 =      -0.08534081 Ry
     correction to one-el term =     167.62481829 Ry

     iteration # 20     ecut=    50.00 Ry     beta= 0.70
     Davidson diagonalization with overlap
     ethr =  2.08E-08,  avg # of iterations =  2.0

     negative rho (up, down):  5.373E-04 0.000E+00

     add environment contribution to local potential
     Polarization accuracy = 1.6E-12, # of iterations =  42

     total cpu time spent up to now is     6816.9 secs

     total energy              =   -3440.07085792 Ry
     estimated scf accuracy    <       0.00002293 Ry
     electrostatic embedding   =      -0.09726878 Ry
     cavitation energy         =       0.02094636 Ry
     PV energy                 =      -0.08532876 Ry
     correction to one-el term =     167.86163628 Ry

     iteration # 21     ecut=    50.00 Ry     beta= 0.70
     Davidson diagonalization with overlap
     ethr =  6.20E-09,  avg # of iterations =  2.0

     negative rho (up, down):  3.678E-04 0.000E+00

     add environment contribution to local potential
     Polarization accuracy = 1.7E-12, # of iterations =  42

     total cpu time spent up to now is     7110.8 secs

     total energy              =   -3440.07086067 Ry
     estimated scf accuracy    <       0.00001346 Ry
     electrostatic embedding   =      -0.09665133 Ry
     cavitation energy         =       0.02094545 Ry
     PV energy                 =      -0.08531870 Ry
     correction to one-el term =     167.96204492 Ry

     iteration # 22     ecut=    50.00 Ry     beta= 0.70
     Davidson diagonalization with overlap
     ethr =  3.64E-09,  avg # of iterations =  1.0

     negative rho (up, down):  7.088E-05 0.000E+00

     add environment contribution to local potential
     Polarization accuracy = 1.7E-12, # of iterations =  42

     total cpu time spent up to now is     7368.4 secs

     total energy              =   -3440.07086078 Ry
     estimated scf accuracy    <       0.00000358 Ry
     electrostatic embedding   =      -0.09663427 Ry
     cavitation energy         =       0.02094480 Ry
     PV energy                 =      -0.08531426 Ry
     correction to one-el term =     167.96418637 Ry

     iteration # 23     ecut=    50.00 Ry     beta= 0.70
     Davidson diagonalization with overlap
     ethr =  9.67E-10,  avg # of iterations =  2.0

     negative rho (up, down):  5.352E-05 0.000E+00

     add environment contribution to local potential
     Polarization accuracy = 1.7E-12, # of iterations =  42

     total cpu time spent up to now is     7667.0 secs

     total energy              =   -3440.07086121 Ry
     estimated scf accuracy    <       0.00000118 Ry
     electrostatic embedding   =      -0.09648171 Ry
     cavitation energy         =       0.02094458 Ry
     PV energy                 =      -0.08530809 Ry
     correction to one-el term =     167.97651454 Ry

     iteration # 24     ecut=    50.00 Ry     beta= 0.70
     Davidson diagonalization with overlap
     ethr =  3.19E-10,  avg # of iterations =  2.0

     negative rho (up, down):  7.303E-05 0.000E+00

     add environment contribution to local potential
     Polarization accuracy = 1.7E-12, # of iterations =  42

     total cpu time spent up to now is     7945.1 secs

     total energy              =   -3440.07086150 Ry
     estimated scf accuracy    <       0.00000086 Ry
     electrostatic embedding   =      -0.09646485 Ry
     cavitation energy         =       0.02094309 Ry
     PV energy                 =      -0.08530549 Ry
     correction to one-el term =     167.98377206 Ry

     iteration # 25     ecut=    50.00 Ry     beta= 0.70
     Davidson diagonalization with overlap
     ethr =  2.33E-10,  avg # of iterations =  2.0

     negative rho (up, down):  2.866E-05 0.000E+00

     add environment contribution to local potential
     Polarization accuracy = 1.7E-12, # of iterations =  42

     total cpu time spent up to now is     8294.5 secs

     total energy              =   -3440.07086174 Ry
     estimated scf accuracy    <       0.00000077 Ry
     electrostatic embedding   =      -0.09646665 Ry
     cavitation energy         =       0.02094152 Ry
     PV energy                 =      -0.08530378 Ry
     correction to one-el term =     167.98984780 Ry

     iteration # 26     ecut=    50.00 Ry     beta= 0.70
     Davidson diagonalization with overlap
     ethr =  2.09E-10,  avg # of iterations =  1.0

     negative rho (up, down):  4.758E-05 0.000E+00

     add environment contribution to local potential
     Polarization accuracy = 1.8E-12, # of iterations =  42

     total cpu time spent up to now is     8582.7 secs

     total energy              =   -3440.07086201 Ry
     estimated scf accuracy    <       0.00000025 Ry
     electrostatic embedding   =      -0.09646312 Ry
     cavitation energy         =       0.02094142 Ry
     PV energy                 =      -0.08530160 Ry
     correction to one-el term =     167.98326694 Ry

     iteration # 27     ecut=    50.00 Ry     beta= 0.70
     Davidson diagonalization with overlap
     ethr =  6.85E-11,  avg # of iterations =  1.0

     negative rho (up, down):  8.424E-05 0.000E+00

     add environment contribution to local potential
     Polarization accuracy = 1.8E-12, # of iterations =  42

     total cpu time spent up to now is     8906.2 secs

     total energy              =   -3440.07086241 Ry
     estimated scf accuracy    <       0.00000015 Ry
     electrostatic embedding   =      -0.09645755 Ry
     cavitation energy         =       0.02094097 Ry
     PV energy                 =      -0.08530131 Ry
     correction to one-el term =     167.98585468 Ry

     iteration # 28     ecut=    50.00 Ry     beta= 0.70
     Davidson diagonalization with overlap
     ethr =  3.94E-11,  avg # of iterations =  2.0

     negative rho (up, down):  9.341E-05 0.000E+00

     add environment contribution to local potential
     Polarization accuracy = 1.8E-12, # of iterations =  42

     total cpu time spent up to now is     9271.2 secs

     total energy              =   -3440.07086289 Ry
     estimated scf accuracy    <       0.00000017 Ry
     electrostatic embedding   =      -0.09651157 Ry
     cavitation energy         =       0.02094096 Ry
     PV energy                 =      -0.08530189 Ry
     correction to one-el term =     167.97807361 Ry

     iteration # 29     ecut=    50.00 Ry     beta= 0.70
     Davidson diagonalization with overlap
     ethr =  3.94E-11,  avg # of iterations =  1.0

     negative rho (up, down):  1.026E-04 0.000E+00

     add environment contribution to local potential
     Polarization accuracy = 1.8E-12, # of iterations =  42

     total cpu time spent up to now is     9566.3 secs

     total energy              =   -3440.07086326 Ry
     estimated scf accuracy    <       0.00000009 Ry
     electrostatic embedding   =      -0.09650929 Ry
     cavitation energy         =       0.02094106 Ry
     PV energy                 =      -0.08530156 Ry
     correction to one-el term =     167.97832113 Ry

     iteration # 30     ecut=    50.00 Ry     beta= 0.70
     Davidson diagonalization with overlap
     ethr =  2.39E-11,  avg # of iterations =  1.0

     negative rho (up, down):  1.014E-04 0.000E+00

     add environment contribution to local potential
     Polarization accuracy = 1.8E-12, # of iterations =  42

     total cpu time spent up to now is     9917.1 secs

     total energy              =   -3440.07086354 Ry
     estimated scf accuracy    <       0.00000006 Ry
     electrostatic embedding   =      -0.09651317 Ry
     cavitation energy         =       0.02094112 Ry
     PV energy                 =      -0.08530147 Ry
     correction to one-el term =     167.97799276 Ry

     iteration # 31     ecut=    50.00 Ry     beta= 0.70
     Davidson diagonalization with overlap
     ethr =  1.61E-11,  avg # of iterations =  1.0

     negative rho (up, down):  9.872E-05 0.000E+00

     add environment contribution to local potential
     Polarization accuracy = 2.1E-12, # of iterations =  42

     total cpu time spent up to now is    10194.1 secs

     total energy              =   -3440.07086391 Ry
     estimated scf accuracy    <       0.00000005 Ry
     electrostatic embedding   =      -0.09651090 Ry
     cavitation energy         =       0.02094131 Ry
     PV energy                 =      -0.08530124 Ry
     correction to one-el term =     167.97870449 Ry

     iteration # 32     ecut=    50.00 Ry     beta= 0.70
     Davidson diagonalization with overlap
     ethr =  1.48E-11,  avg # of iterations =  1.0

     negative rho (up, down):  9.499E-05 0.000E+00

     add environment contribution to local potential
     Polarization accuracy = 1.8E-12, # of iterations =  42

     total cpu time spent up to now is    10520.3 secs

     total energy              =   -3440.07086428 Ry
     estimated scf accuracy    <       0.00000006 Ry
     electrostatic embedding   =      -0.09650975 Ry
     cavitation energy         =       0.02094144 Ry
     PV energy                 =      -0.08530110 Ry
     correction to one-el term =     167.97907168 Ry

     iteration # 33     ecut=    50.00 Ry     beta= 0.70
     Davidson diagonalization with overlap
     ethr =  1.48E-11,  avg # of iterations =  1.0

     negative rho (up, down):  9.486E-05 0.000E+00

     add environment contribution to local potential
     Polarization accuracy = 1.8E-12, # of iterations =  42

     total cpu time spent up to now is    10833.2 secs

     total energy              =   -3440.07086478 Ry
     estimated scf accuracy    <       0.00000005 Ry
     electrostatic embedding   =      -0.09650680 Ry
     cavitation energy         =       0.02094155 Ry
     PV energy                 =      -0.08530091 Ry
     correction to one-el term =     167.97971927 Ry

     iteration # 34     ecut=    50.00 Ry     beta= 0.70
     Davidson diagonalization with overlap
     ethr =  1.29E-11,  avg # of iterations =  1.0

     negative rho (up, down):  9.337E-05 0.000E+00

     add environment contribution to local potential
     Polarization accuracy = 1.8E-12, # of iterations =  42

     total cpu time spent up to now is    10992.8 secs

     total energy              =   -3440.07086528 Ry
     estimated scf accuracy    <       0.00000005 Ry
     electrostatic embedding   =      -0.09650632 Ry
     cavitation energy         =       0.02094153 Ry
     PV energy                 =      -0.08530086 Ry
     correction to one-el term =     167.97988546 Ry

     iteration # 35     ecut=    50.00 Ry     beta= 0.70
     Davidson diagonalization with overlap
     ethr =  1.26E-11,  avg # of iterations =  3.0

     negative rho (up, down):  9.140E-05 0.000E+00

     add environment contribution to local potential
     Polarization accuracy = 1.8E-12, # of iterations =  42

     total cpu time spent up to now is    11278.0 secs

     total energy              =   -3440.07086777 Ry
     estimated scf accuracy    <       0.00000004 Ry
     electrostatic embedding   =      -0.09650662 Ry
     cavitation energy         =       0.02094166 Ry
     PV energy                 =      -0.08530063 Ry
     correction to one-el term =     167.98032459 Ry

     iteration # 36     ecut=    50.00 Ry     beta= 0.70
     Davidson diagonalization with overlap
     ethr =  1.04E-11,  avg # of iterations =  5.0

     negative rho (up, down):  9.619E-05 0.000E+00

     add environment contribution to local potential
     Polarization accuracy = 1.7E-12, # of iterations =  42

     total cpu time spent up to now is    11594.2 secs

     total energy              =   -3440.07087083 Ry
     estimated scf accuracy    <       0.00000004 Ry
     electrostatic embedding   =      -0.09650841 Ry
     cavitation energy         =       0.02094154 Ry
     PV energy                 =      -0.08530076 Ry
     correction to one-el term =     167.97982635 Ry

     iteration # 37     ecut=    50.00 Ry     beta= 0.70
     Davidson diagonalization with overlap
     ethr =  1.04E-11,  avg # of iterations =  5.0

     negative rho (up, down):  9.767E-05 0.000E+00

     add environment contribution to local potential
     Polarization accuracy = 1.7E-12, # of iterations =  42

     total cpu time spent up to now is    11813.5 secs

     total energy              =   -3440.07087581 Ry
     estimated scf accuracy    <       0.00000001 Ry
     electrostatic embedding   =      -0.09651331 Ry
     cavitation energy         =       0.02094135 Ry
     PV energy                 =      -0.08530092 Ry
     correction to one-el term =     167.97885720 Ry

     iteration # 38     ecut=    50.00 Ry     beta= 0.70
     Davidson diagonalization with overlap
     ethr =  2.72E-12,  avg # of iterations =  5.0

     negative rho (up, down):  9.801E-05 0.000E+00

     add environment contribution to local potential
     Polarization accuracy = 1.7E-12, # of iterations =  42

     total cpu time spent up to now is    12108.3 secs

     total energy              =   -3440.07088032 Ry
     estimated scf accuracy    <          8.1E-09 Ry
     electrostatic embedding   =      -0.09651387 Ry
     cavitation energy         =       0.02094140 Ry
     PV energy                 =      -0.08530099 Ry
     correction to one-el term =     167.97840452 Ry

     iteration # 39     ecut=    50.00 Ry     beta= 0.70
     Davidson diagonalization with overlap
     ethr =  2.19E-12,  avg # of iterations =  2.0

     negative rho (up, down):  9.665E-05 0.000E+00

     add environment contribution to local potential
     Polarization accuracy = 5.2E-12, # of iterations =  41

     total cpu time spent up to now is    12389.3 secs

     total energy              =   -3440.07088173 Ry
     estimated scf accuracy    <          2.4E-09 Ry
     electrostatic embedding   =      -0.09651493 Ry
     cavitation energy         =       0.02094132 Ry
     PV energy                 =      -0.08530113 Ry
     correction to one-el term =     167.97801396 Ry

     iteration # 40     ecut=    50.00 Ry     beta= 0.70
     Davidson diagonalization with overlap
     ethr =  6.35E-13,  avg # of iterations =  5.0

     negative rho (up, down):  9.627E-05 0.000E+00

     add environment contribution to local potential
     Polarization accuracy = 1.7E-12, # of iterations =  42

     total cpu time spent up to now is    12731.2 secs

     total energy              =   -3440.07088228 Ry
     estimated scf accuracy    <          2.3E-09 Ry
     electrostatic embedding   =      -0.09651241 Ry
     cavitation energy         =       0.02094136 Ry
     PV energy                 =      -0.08530111 Ry
     correction to one-el term =     167.97835309 Ry

     iteration # 41     ecut=    50.00 Ry     beta= 0.70
     Davidson diagonalization with overlap
     ethr =  6.23E-13,  avg # of iterations =  2.0

     negative rho (up, down):  9.493E-05 0.000E+00

     the potential shift due to the Gaussian-smeared nuclei is    -1.3280 ev

     total cpu time spent up to now is    13029.6 secs

     End of self-consistent calculation

          k = 0.2500 0.2573 0.0000 ( 35510 PWs)   bands (ev):

   -75.9153 -75.9018 -75.4703 -75.4658 -75.4575 -75.4385 -75.3769 -75.3763
   -75.3638 -75.3546 -75.3417 -75.3152 -46.3286 -46.3151 -45.7996 -45.7862
   -45.7617 -45.7536 -45.7488 -45.7077 -45.6975 -45.6377 -45.6293 -45.6243
   -45.6162 -45.6109 -45.5874 -45.5743 -45.4395 -45.4265 -45.3765 -45.3580
   -45.3450 -45.3284 -45.3128 -45.3050 -45.3006 -45.2970 -45.2919 -45.2760
   -45.2738 -45.2515 -45.2388 -45.2101 -45.1865 -45.1864 -45.1733 -45.1273
   -25.5481 -25.5292 -25.4513 -25.4324 -21.9335 -21.7287 -21.5996 -21.5695
   -21.3610 -21.3581 -21.3098 -21.2370 -21.1205 -21.0891 -21.0168 -20.9995
   -20.9009 -20.7991 -20.7772 -20.6980 -20.6855 -20.5980 -20.5850 -20.5698
   -20.3839 -20.3360 -19.6407 -19.6148 -13.1937 -13.1749 -13.1228 -13.1040
   -10.9072 -10.7290 -10.6059 -10.5902  -9.9152  -9.8973  -9.7232  -9.4405
    -9.3737  -9.3580  -9.3020  -9.2328  -9.1901  -9.1523  -9.0397  -8.9699
    -8.9477  -8.8874  -8.8809  -8.8474  -8.7803  -8.7722  -8.6305  -8.5934
    -8.5383  -8.4978  -8.4246  -8.4008  -8.3871  -8.1192  -7.9681  -7.9468
    -7.8904  -7.8723  -7.7194  -7.6692  -7.5931  -7.5097  -7.4460  -7.4053
    -7.2881  -7.1870  -7.1517  -7.1119  -6.9457  -6.8996  -6.7912  -6.7861
    -6.6438  -6.6295  -6.5574  -6.5441  -6.4840  -6.4623  -6.3911  -6.2951
    -6.2023  -6.1665  -6.1396  -6.0591  -5.9671  -5.9382  -5.8616  -5.6716
    -5.5793  -5.4497  -5.4319  -5.3492  -5.2589  -5.1354  -5.1145  -4.9512
    -4.9097  -4.8327  -4.7980  -4.6859  -4.5811  -4.5029  -4.4440  -4.3167
    -3.3871  -3.2937  -3.1140  -3.0534  -3.0419  -2.9512  -2.9237  -2.8934
    -2.8493  -2.8397  -2.7811  -2.7642  -2.6949  -2.6839  -2.6591  -2.6416
    -2.5866  -2.5595  -2.4825  -2.4530  -2.3606  -2.3002  -2.1522  -2.1402
    -2.0505  -1.9504  -1.8346  -1.6299  -1.5093  -1.4222  -1.3240  -1.2728
    -1.2144  -1.1960  -1.0341  -1.0135  -0.8460  -0.7539  -0.1180   0.0323
     0.0584   0.1365   0.1710   0.3851   0.3913   0.7277   1.2110   1.2618
     1.3554   1.3996   1.4639   1.5342   1.5835   1.7375   1.8527   1.8959
     1.9712   1.9931   2.1892   2.3552   2.3942   2.5464

     the Fermi energy is    -2.0121 ev

!    total energy              =   -3440.07088274 Ry
     estimated scf accuracy    <          7.8E-10 Ry
     smearing contrib. (-TS)   =       0.07109057 Ry
     internal energy E=F+TS    =   -3440.14197331 Ry

     The total energy is F=E-TS. E is the sum of the following terms:
     one-electron contribution =  -24600.89108516 Ry
     hartree contribution      =   12307.03892249 Ry
     xc contribution           =    -451.32079867 Ry
     ewald contribution        =    9403.65628482 Ry
     one-center paw contrib.   =    -266.44297897 Ry
     electrostatic embedding   =      -0.09651132 Ry
     cavitation energy         =       0.02094137 Ry
     PV energy                 =      -0.08530108 Ry
     correction to one-el term =     167.97855321 Ry

     WARNING: you are using the parabolic pbc correction;
              the potential shift above must be added to 
              band and Fermi energies.

     convergence has been achieved in  41 iterations

     negative rho (up, down):  9.493E-05 0.000E+00

     Forces acting on atoms (cartesian axes, Ry/au):

     atom    1 type  1   force =     0.00673490    0.00000000   -0.00802208
     atom    2 type  1   force =    -0.00130901    0.00000000   -0.01705173
     atom    3 type  1   force =    -0.00113027    0.00000000    0.06392617
     atom    4 type  1   force =     0.00101637    0.00000000    0.06424997
     atom    5 type  2   force =     0.00073172    0.00000000   -0.00112688
     atom    6 type  2   force =    -0.00037886    0.00000000   -0.00300947
     atom    7 type  1   force =     0.00256718    0.03535211   -0.00075691
     atom    8 type  1   force =    -0.00144209    0.02390498   -0.00057955
     atom    9 type  2   force =    -0.00144553    0.00000000   -0.00330737
     atom   10 type  2   force =     0.00000932    0.00000000    0.00559958
     atom   11 type  1   force =     0.00256718   -0.03535211   -0.00075691
     atom   12 type  1   force =    -0.00144209   -0.02390498   -0.00057955
     atom   13 type  1   force =    -0.00059308    0.00000000    0.00562985
     atom   14 type  1   force =     0.00048172    0.00000000    0.00566075
     atom   15 type  1   force =    -0.00141195    0.00000000    0.00062230
     atom   16 type  1   force =     0.00167159    0.00000000    0.00748556
     atom   17 type  2   force =     0.00667216    0.00000000    0.00000000
     atom   18 type  2   force =    -0.00630336    0.00000000    0.00000000
     atom   19 type  1   force =    -0.00384478   -0.01896925    0.00000000
     atom   20 type  1   force =     0.00297103   -0.03270928    0.00000000
     atom   21 type  2   force =    -0.00433971    0.00000000    0.00000000
     atom   22 type  2   force =     0.00561011    0.00000000    0.00000000
     atom   23 type  1   force =    -0.00384478    0.01896925    0.00000000
     atom   24 type  1   force =     0.00297103    0.03270928    0.00000000
     atom   25 type  1   force =    -0.00141195    0.00000000   -0.00062230
     atom   26 type  1   force =     0.00167159    0.00000000   -0.00748556
     atom   27 type  1   force =    -0.00059308    0.00000000   -0.00562985
     atom   28 type  1   force =     0.00048172    0.00000000   -0.00566075
     atom   29 type  2   force =     0.00073172    0.00000000    0.00112688
     atom   30 type  2   force =    -0.00037886    0.00000000    0.00300947
     atom   31 type  1   force =     0.00256718    0.03535211    0.00075691
     atom   32 type  1   force =    -0.00144209    0.02390498    0.00057955
     atom   33 type  2   force =    -0.00144553    0.00000000    0.00330737
     atom   34 type  2   force =     0.00000932    0.00000000   -0.00559958
     atom   35 type  1   force =     0.00256718   -0.03535211    0.00075691
     atom   36 type  1   force =    -0.00144209   -0.02390498    0.00057955
     atom   37 type  1   force =    -0.00113027    0.00000000   -0.06392617
     atom   38 type  1   force =     0.00101637    0.00000000   -0.06424997
     atom   39 type  1   force =     0.00673490    0.00000000    0.00802208
     atom   40 type  1   force =    -0.00130901    0.00000000    0.01705173
     atom   41 type  3   force =    -0.00630549    0.00000000   -0.00025801
     atom   42 type  3   force =    -0.00630549    0.00000000    0.00025801
     atom   43 type  3   force =     0.00043096    0.06573864   -0.03261031
     atom   44 type  3   force =     0.00043096    0.06573864    0.03261031
     atom   45 type  3   force =    -0.00056469    0.06525289   -0.03287641
     atom   46 type  3   force =    -0.00056469    0.06525289    0.03287641
     atom   47 type  3   force =     0.00043096   -0.06573864   -0.03261031
     atom   48 type  3   force =     0.00043096   -0.06573864    0.03261031
     atom   49 type  3   force =    -0.00056469   -0.06525289   -0.03287641
     atom   50 type  3   force =    -0.00056469   -0.06525289    0.03287641
     The non-local contrib.  to forces
     atom    1 type  1   force =     1.58895485    0.00000000    0.52722984
     atom    2 type  1   force =    -0.01672921    0.00000000    0.98004080
     atom    3 type  1   force =     0.00600724    0.00000000   -1.50810552
     atom    4 type  1   force =    -0.00404277    0.00000000   -1.54041502
     atom    5 type  2   force =     0.00158195    0.00000000    0.02514902
     atom    6 type  2   force =    -0.00384874    0.00000000    0.03365417
     atom    7 type  1   force =     0.01006910   -0.02505796   -0.06848483
     atom    8 type  1   force =    -0.05396563   -0.01268440    0.00324220
     atom    9 type  2   force =    -0.00279341    0.00000000    0.05059737
     atom   10 type  2   force =     0.00185342    0.00000000    0.01054578
     atom   11 type  1   force =     0.01006910    0.02505796   -0.06848483
     atom   12 type  1   force =    -0.05396563    0.01268440    0.00324220
     atom   13 type  1   force =     0.01503468    0.00000000   -0.20616852
     atom   14 type  1   force =    -0.01787644    0.00000000   -0.21271973
     atom   15 type  1   force =    -0.01291565    0.00000000   -0.04854726
     atom   16 type  1   force =    -0.00196195    0.00000000    0.21993636
     atom   17 type  2   force =     0.00071647    0.00000000    0.00000000
     atom   18 type  2   force =    -0.00315171    0.00000000    0.00000000
     atom   19 type  1   force =     0.03275121    0.01289021    0.00000000
     atom   20 type  1   force =    -0.02949595   -0.02211394    0.00000000
     atom   21 type  2   force =     0.00995281    0.00000000    0.00000000
     atom   22 type  2   force =    -0.00854515    0.00000000    0.00000000
     atom   23 type  1   force =     0.03275121   -0.01289021    0.00000000
     atom   24 type  1   force =    -0.02949595    0.02211394    0.00000000
     atom   25 type  1   force =    -0.01291565    0.00000000    0.04854726
     atom   26 type  1   force =    -0.00196195    0.00000000   -0.21993636
     atom   27 type  1   force =     0.01503468    0.00000000    0.20616852
     atom   28 type  1   force =    -0.01787644    0.00000000    0.21271973
     atom   29 type  2   force =     0.00158195    0.00000000   -0.02514902
     atom   30 type  2   force =    -0.00384874    0.00000000   -0.03365417
     atom   31 type  1   force =     0.01006910   -0.02505796    0.06848483
     atom   32 type  1   force =    -0.05396563   -0.01268440   -0.00324220
     atom   33 type  2   force =    -0.00279341    0.00000000   -0.05059737
     atom   34 type  2   force =     0.00185342    0.00000000   -0.01054578
     atom   35 type  1   force =     0.01006910    0.02505796    0.06848483
     atom   36 type  1   force =    -0.05396563    0.01268440   -0.00324220
     atom   37 type  1   force =     0.00600724    0.00000000    1.50810552
     atom   38 type  1   force =    -0.00404277    0.00000000    1.54041502
     atom   39 type  1   force =     1.58895485    0.00000000   -0.52722984
     atom   40 type  1   force =    -0.01672921    0.00000000   -0.98004080
     atom   41 type  3   force =    -0.09776426    0.00000000    0.01307941
     atom   42 type  3   force =    -0.09776426    0.00000000   -0.01307941
     atom   43 type  3   force =    -0.00087769   -0.10066527    0.07081604
     atom   44 type  3   force =    -0.00087769   -0.10066527   -0.07081604
     atom   45 type  3   force =     0.00094121   -0.10026020    0.07305452
     atom   46 type  3   force =     0.00094121   -0.10026020   -0.07305452
     atom   47 type  3   force =    -0.00087769    0.10066527    0.07081604
     atom   48 type  3   force =    -0.00087769    0.10066527   -0.07081604
     atom   49 type  3   force =     0.00094121    0.10026020    0.07305452
     atom   50 type  3   force =     0.00094121    0.10026020   -0.07305452
     The ionic contribution  to forces
     atom    1 type  1   force =    -3.69649193    0.00000015  -92.74401054
     atom    2 type  1   force =     0.71897510    0.00000016  -96.65167240
     atom    3 type  1   force =    -0.20358475   -0.00000023  -86.62057536
     atom    4 type  1   force =     0.18574617   -0.00000022  -86.50288783
     atom    5 type  2   force =     0.31781925   -0.00000257 -162.54208969
     atom    6 type  2   force =    -0.33891603   -0.00000239 -164.29582382
     atom    7 type  1   force =     0.39176957   -0.41793122  -61.35615028
     atom    8 type  1   force =    -0.07232303   -0.54575513  -63.70711891
     atom    9 type  2   force =    -1.83567510    0.00000337 -163.28804659
     atom   10 type  2   force =     1.67639793    0.00000287 -168.76801991
     atom   11 type  1   force =     0.39176958    0.41793160  -61.35614774
     atom   12 type  1   force =    -0.07232304    0.54575554  -63.70711664
     atom   13 type  1   force =    -0.23583123   -0.00000150  -37.01149149
     atom   14 type  1   force =     0.26175445   -0.00000149  -37.16731733
     atom   15 type  1   force =    -0.15727680    0.00001015  -24.65572327
     atom   16 type  1   force =     0.21947584    0.00000931  -27.32694952
     atom   17 type  2   force =     0.00197360    0.00001921   -0.00048479
     atom   18 type  2   force =     0.00483875    0.00002110   -0.00048425
     atom   19 type  1   force =    -0.25635734    1.23909025   -0.00008753
     atom   20 type  1   force =     0.22672955    0.92911313   -0.00008339
     atom   21 type  2   force =     0.61694516    0.00011130   -0.00027340
     atom   22 type  2   force =    -0.78957866    0.00011566   -0.00026302
     atom   23 type  1   force =    -0.25635796   -1.23923779   -0.00008753
     atom   24 type  1   force =     0.22673069   -0.92926955   -0.00008339
     atom   25 type  1   force =    -0.15727469    0.00001015   24.65551900
     atom   26 type  1   force =     0.21947920    0.00000931   27.32682496
     atom   27 type  1   force =    -0.23583003   -0.00000150   37.01177988
     atom   28 type  1   force =     0.26175346   -0.00000149   37.16760747
     atom   29 type  2   force =     0.31781668   -0.00000257  162.54242650
     atom   30 type  2   force =    -0.33891356   -0.00000239  164.29615975
     atom   31 type  1   force =     0.39176956   -0.41795909   61.35622130
     atom   32 type  1   force =    -0.07232204   -0.54577799   63.70719415
     atom   33 type  2   force =    -1.83569104    0.00000337  163.28819544
     atom   34 type  2   force =     1.67640772    0.00000287  168.76819381
     atom   35 type  1   force =     0.39176957    0.41795947   61.35621876
     atom   36 type  1   force =    -0.07232206    0.54577839   63.70719188
     atom   37 type  1   force =    -0.20359529   -0.00000023   86.62053420
     atom   38 type  1   force =     0.18575665   -0.00000022   86.50283594
     atom   39 type  1   force =    -3.69652025    0.00000015   92.74415273
     atom   40 type  1   force =     0.71897802    0.00000016   96.65175212
     atom   41 type  3   force =     2.58043385    0.00000002  -15.47973501
     atom   42 type  3   force =     2.58046271    0.00000002   15.47971052
     atom   43 type  3   force =    -0.04818295    2.69497165  -16.72787626
     atom   44 type  3   force =    -0.04818028    2.69522037   16.72792438
     atom   45 type  3   force =     0.03859092    2.67727479  -16.77727313
     atom   46 type  3   force =     0.03858820    2.67752539   16.77732763
     atom   47 type  3   force =    -0.04818295   -2.69497168  -16.72787623
     atom   48 type  3   force =    -0.04818028   -2.69522041   16.72792435
     atom   49 type  3   force =     0.03859092   -2.67727483  -16.77727310
     atom   50 type  3   force =     0.03858820   -2.67752542   16.77732760
     The local contribution  to forces
     atom    1 type  1   force =     2.07198088   -0.00000000   92.10178520
     atom    2 type  1   force =    -0.65601422    0.00000000   95.55337202
     atom    3 type  1   force =     0.18801096    0.00000000   88.27945043
     atom    4 type  1   force =    -0.17290962    0.00000000   88.20961690
     atom    5 type  2   force =    -0.32253367   -0.00000000  162.57728115
     atom    6 type  2   force =     0.34660157   -0.00000000  164.30832782
     atom    7 type  1   force =    -0.40028372    0.49925105   61.42078696
     atom    8 type  1   force =     0.12543039    0.60977707   63.68356939
     atom    9 type  2   force =     1.81339010    0.00000000  163.16971004
     atom   10 type  2   force =    -1.65098554   -0.00000000  168.69394834
     atom   11 type  1   force =    -0.40028372   -0.49925105   61.42078696
     atom   12 type  1   force =     0.12543039   -0.60977707   63.68356939
     atom   13 type  1   force =     0.21888704    0.00000000   37.22597378
     atom   14 type  1   force =    -0.24209887    0.00000000   37.38925613
     atom   15 type  1   force =     0.16741862    0.00000000   24.70042352
     atom   16 type  1   force =    -0.21454152    0.00000000   27.11329815
     atom   17 type  2   force =     0.00262340    0.00000000   -0.00576247
     atom   18 type  2   force =    -0.00662542    0.00000000   -0.00578884
     atom   19 type  1   force =     0.21992347   -1.26966512   -0.00241338
     atom   20 type  1   force =    -0.19437573   -0.93893062   -0.00243240
     atom   21 type  2   force =    -0.63147018   -0.00000000   -0.00597221
     atom   22 type  2   force =     0.80409707    0.00000000   -0.00600316
     atom   23 type  1   force =     0.21992415    1.26929822   -0.00241338
     atom   24 type  1   force =    -0.19437692    0.93857076   -0.00243240
     atom   25 type  1   force =     0.16742566   -0.00000000  -24.70217453
     atom   26 type  1   force =    -0.21453896    0.00000000  -27.11502680
     atom   27 type  1   force =     0.21888723    0.00000000  -37.22773267
     atom   28 type  1   force =    -0.24209971    0.00000000  -37.39101362
     atom   29 type  2   force =    -0.32252852    0.00000000 -162.58324997
     atom   30 type  2   force =     0.34659625   -0.00000000 -164.31427522
     atom   31 type  1   force =    -0.40026312    0.49930324  -61.42319083
     atom   32 type  1   force =     0.12540678    0.60981133  -63.68598587
     atom   33 type  2   force =     1.81341935    0.00000000 -163.17552377
     atom   34 type  2   force =    -1.65102461   -0.00000000 -168.69963206
     atom   35 type  1   force =    -0.40026312   -0.49930324  -61.42319083
     atom   36 type  1   force =     0.12540678   -0.60981133  -63.68598587
     atom   37 type  1   force =     0.18802138   -0.00000000  -88.28311581
     atom   38 type  1   force =    -0.17291992    0.00000000  -88.21327956
     atom   39 type  1   force =     2.07199963   -0.00000000  -92.10339241
     atom   40 type  1   force =    -0.65605491    0.00000000  -95.55482956
     atom   41 type  3   force =    -2.49105539    0.00000000   15.44971715
     atom   42 type  3   force =    -2.49105539    0.00000000  -15.44971715
     atom   43 type  3   force =     0.04757874   -2.51104375   16.64890224
     atom   44 type  3   force =     0.04757874   -2.51104375  -16.64890224
     atom   45 type  3   force =    -0.03867133   -2.49535259   16.70137048
     atom   46 type  3   force =    -0.03867133   -2.49535259  -16.70137048
     atom   47 type  3   force =     0.04757874    2.51104375   16.64890224
     atom   48 type  3   force =     0.04757874    2.51104375  -16.64890224
     atom   49 type  3   force =    -0.03867133    2.49535259   16.70137048
     atom   50 type  3   force =    -0.03867133    2.49535259  -16.70137048
     The core correction contribution to forces
     atom    1 type  1   force =    -0.01561024   -0.00000000   -0.00558855
     atom    2 type  1   force =     0.00031901    0.00000000   -0.00860816
     atom    3 type  1   force =    -0.00000081    0.00000000    0.01308425
     atom    4 type  1   force =    -0.00002053    0.00000000    0.01330926
     atom    5 type  2   force =     0.00000000    0.00000000    0.00000000
     atom    6 type  2   force =     0.00000000    0.00000000    0.00000000
     atom    7 type  1   force =    -0.00029985   -0.00056740    0.00078235
     atom    8 type  1   force =     0.00072699   -0.00042335    0.00005145
     atom    9 type  2   force =     0.00000000    0.00000000    0.00000000
     atom   10 type  2   force =     0.00000000    0.00000000    0.00000000
     atom   11 type  1   force =    -0.00029985    0.00056740    0.00078235
     atom   12 type  1   force =     0.00072699    0.00042335    0.00005145
     atom   13 type  1   force =    -0.00017527   -0.00000000    0.00285888
     atom   14 type  1   force =     0.00019505   -0.00000000    0.00293364
     atom   15 type  1   force =     0.00017108    0.00000000    0.00034803
     atom   16 type  1   force =     0.00001218    0.00000000   -0.00299036
     atom   17 type  2   force =     0.00000000    0.00000000    0.00000000
     atom   18 type  2   force =     0.00000000    0.00000000    0.00000000
     atom   19 type  1   force =    -0.00027772    0.00023865   -0.00000193
     atom   20 type  1   force =     0.00024096    0.00087556   -0.00000201
     atom   21 type  2   force =     0.00000000    0.00000000    0.00000000
     atom   22 type  2   force =     0.00000000    0.00000000    0.00000000
     atom   23 type  1   force =    -0.00027772   -0.00023927   -0.00000193
     atom   24 type  1   force =     0.00024096   -0.00087614   -0.00000201
     atom   25 type  1   force =     0.00017105    0.00000000   -0.00035034
     atom   26 type  1   force =     0.00001222    0.00000000    0.00298826
     atom   27 type  1   force =    -0.00017529   -0.00000000   -0.00286091
     atom   28 type  1   force =     0.00019506    0.00000000   -0.00293570
     atom   29 type  2   force =     0.00000000    0.00000000    0.00000000
     atom   30 type  2   force =     0.00000000    0.00000000    0.00000000
     atom   31 type  1   force =    -0.00029977   -0.00056718   -0.00078420
     atom   32 type  1   force =     0.00072690   -0.00042311   -0.00005333
     atom   33 type  2   force =     0.00000000    0.00000000    0.00000000
     atom   34 type  2   force =     0.00000000    0.00000000    0.00000000
     atom   35 type  1   force =    -0.00029977    0.00056718   -0.00078420
     atom   36 type  1   force =     0.00072690    0.00042311   -0.00005334
     atom   37 type  1   force =    -0.00000090   -0.00000000   -0.01308842
     atom   38 type  1   force =    -0.00002044    0.00000000   -0.01331346
     atom   39 type  1   force =    -0.01561086   -0.00000000    0.00558631
     atom   40 type  1   force =     0.00031899    0.00000000    0.00860591
     atom   41 type  3   force =     0.00000000    0.00000000    0.00000000
     atom   42 type  3   force =     0.00000000    0.00000000    0.00000000
     atom   43 type  3   force =     0.00000000    0.00000000    0.00000000
     atom   44 type  3   force =     0.00000000    0.00000000    0.00000000
     atom   45 type  3   force =     0.00000000    0.00000000    0.00000000
     atom   46 type  3   force =     0.00000000    0.00000000    0.00000000
     atom   47 type  3   force =     0.00000000    0.00000000    0.00000000
     atom   48 type  3   force =     0.00000000    0.00000000    0.00000000
     atom   49 type  3   force =     0.00000000    0.00000000    0.00000000
     atom   50 type  3   force =     0.00000000    0.00000000    0.00000000
     The Hubbard contrib.    to forces
     atom    1 type  1   force =     0.00000000    0.00000000    0.00000000
     atom    2 type  1   force =     0.00000000    0.00000000    0.00000000
     atom    3 type  1   force =     0.00000000    0.00000000    0.00000000
     atom    4 type  1   force =     0.00000000    0.00000000    0.00000000
     atom    5 type  2   force =     0.00000000    0.00000000    0.00000000
     atom    6 type  2   force =     0.00000000    0.00000000    0.00000000
     atom    7 type  1   force =     0.00000000    0.00000000    0.00000000
     atom    8 type  1   force =     0.00000000    0.00000000    0.00000000
     atom    9 type  2   force =     0.00000000    0.00000000    0.00000000
     atom   10 type  2   force =     0.00000000    0.00000000    0.00000000
     atom   11 type  1   force =     0.00000000    0.00000000    0.00000000
     atom   12 type  1   force =     0.00000000    0.00000000    0.00000000
     atom   13 type  1   force =     0.00000000    0.00000000    0.00000000
     atom   14 type  1   force =     0.00000000    0.00000000    0.00000000
     atom   15 type  1   force =     0.00000000    0.00000000    0.00000000
     atom   16 type  1   force =     0.00000000    0.00000000    0.00000000
     atom   17 type  2   force =     0.00000000    0.00000000    0.00000000
     atom   18 type  2   force =     0.00000000    0.00000000    0.00000000
     atom   19 type  1   force =     0.00000000    0.00000000    0.00000000
     atom   20 type  1   force =     0.00000000    0.00000000    0.00000000
     atom   21 type  2   force =     0.00000000    0.00000000    0.00000000
     atom   22 type  2   force =     0.00000000    0.00000000    0.00000000
     atom   23 type  1   force =     0.00000000    0.00000000    0.00000000
     atom   24 type  1   force =     0.00000000    0.00000000    0.00000000
     atom   25 type  1   force =     0.00000000    0.00000000    0.00000000
     atom   26 type  1   force =     0.00000000    0.00000000    0.00000000
     atom   27 type  1   force =     0.00000000    0.00000000    0.00000000
     atom   28 type  1   force =     0.00000000    0.00000000    0.00000000
     atom   29 type  2   force =     0.00000000    0.00000000    0.00000000
     atom   30 type  2   force =     0.00000000    0.00000000    0.00000000
     atom   31 type  1   force =     0.00000000    0.00000000    0.00000000
     atom   32 type  1   force =     0.00000000    0.00000000    0.00000000
     atom   33 type  2   force =     0.00000000    0.00000000    0.00000000
     atom   34 type  2   force =     0.00000000    0.00000000    0.00000000
     atom   35 type  1   force =     0.00000000    0.00000000    0.00000000
     atom   36 type  1   force =     0.00000000    0.00000000    0.00000000
     atom   37 type  1   force =     0.00000000    0.00000000    0.00000000
     atom   38 type  1   force =     0.00000000    0.00000000    0.00000000
     atom   39 type  1   force =     0.00000000    0.00000000    0.00000000
     atom   40 type  1   force =     0.00000000    0.00000000    0.00000000
     atom   41 type  3   force =     0.00000000    0.00000000    0.00000000
     atom   42 type  3   force =     0.00000000    0.00000000    0.00000000
     atom   43 type  3   force =     0.00000000    0.00000000    0.00000000
     atom   44 type  3   force =     0.00000000    0.00000000    0.00000000
     atom   45 type  3   force =     0.00000000    0.00000000    0.00000000
     atom   46 type  3   force =     0.00000000    0.00000000    0.00000000
     atom   47 type  3   force =     0.00000000    0.00000000    0.00000000
     atom   48 type  3   force =     0.00000000    0.00000000    0.00000000
     atom   49 type  3   force =     0.00000000    0.00000000    0.00000000
     atom   50 type  3   force =     0.00000000    0.00000000    0.00000000
     The SCF correction term to forces
     atom    1 type  1   force =    -0.00000892   -0.00000001    0.00001296
     atom    2 type  1   force =     0.00000605   -0.00000001   -0.00000167
     atom    3 type  1   force =     0.00000127    0.00000001    0.00000742
     atom    4 type  1   force =    -0.00000196    0.00000001    0.00001593
     atom    5 type  2   force =    -0.00001889    0.00000006    0.00004210
     atom    6 type  2   force =     0.00001937    0.00000006    0.00004803
     atom    7 type  1   force =    -0.00001552    0.00000075    0.00001362
     atom    8 type  1   force =     0.00001572    0.00000196    0.00001166
     atom    9 type  2   force =    -0.00001076   -0.00000006    0.00002148
     atom   10 type  2   force =     0.00001191   -0.00000006    0.00003059
     atom   11 type  1   force =    -0.00001552   -0.00000077    0.00001361
     atom   12 type  1   force =     0.00001572   -0.00000198    0.00001166
     atom   13 type  1   force =    -0.00000262    0.00000002    0.00001956
     atom   14 type  1   force =     0.00000270    0.00000002    0.00001940
     atom   15 type  1   force =    -0.00000374   -0.00000003    0.00000263
     atom   16 type  1   force =     0.00000362   -0.00000003    0.00001595
     atom   17 type  2   force =    -0.00000471    0.00000008    0.00001156
     atom   18 type  2   force =     0.00000536    0.00000008    0.00001158
     atom   19 type  1   force =    -0.00000631   -0.00000853    0.00000423
     atom   20 type  1   force =     0.00000623   -0.00000671    0.00000423
     atom   21 type  2   force =    -0.00001382   -0.00000008    0.00001116
     atom   22 type  2   force =     0.00001496   -0.00000008    0.00001115
     atom   23 type  1   force =    -0.00000631    0.00000855    0.00000423
     atom   24 type  1   force =     0.00000623    0.00000673    0.00000423
     atom   25 type  1   force =    -0.00000374   -0.00000003    0.00000435
     atom   26 type  1   force =     0.00000362   -0.00000003   -0.00000933
     atom   27 type  1   force =    -0.00000264    0.00000002   -0.00001462
     atom   28 type  1   force =     0.00000272    0.00000002   -0.00001449
     atom   29 type  2   force =    -0.00001890    0.00000006   -0.00004100
     atom   30 type  2   force =     0.00001938    0.00000006   -0.00004713
     atom   31 type  1   force =    -0.00001556    0.00000055   -0.00001340
     atom   32 type  1   force =     0.00001575    0.00000178   -0.00001162
     atom   33 type  2   force =    -0.00001086   -0.00000006   -0.00002085
     atom   34 type  2   force =     0.00001205   -0.00000006   -0.00003134
     atom   35 type  1   force =    -0.00001556   -0.00000057   -0.00001340
     atom   36 type  1   force =     0.00001575   -0.00000180   -0.00001161
     atom   37 type  1   force =     0.00000121    0.00000001   -0.00001052
     atom   38 type  1   force =    -0.00000190    0.00000001   -0.00001902
     atom   39 type  1   force =    -0.00000905   -0.00000001   -0.00001615
     atom   40 type  1   force =     0.00000616   -0.00000001   -0.00000151
     atom   41 type  3   force =    -0.00000229   -0.00000000    0.00000116
     atom   42 type  3   force =    -0.00000228   -0.00000000   -0.00000165
     atom   43 type  3   force =    -0.00000004    0.00000069    0.00000125
     atom   44 type  3   force =    -0.00000005    0.00000068   -0.00000173
     atom   45 type  3   force =    -0.00000002    0.00000138    0.00000044
     atom   46 type  3   force =    -0.00000001    0.00000137   -0.00000091
     atom   47 type  3   force =    -0.00000004   -0.00000069    0.00000125
     atom   48 type  3   force =    -0.00000005   -0.00000068   -0.00000172
     atom   49 type  3   force =    -0.00000002   -0.00000137    0.00000043
     atom   50 type  3   force =    -0.00000001   -0.00000137   -0.00000091

     Total force =     0.266348     Total SCF correction =     0.000144

     BFGS Geometry Optimization
     Energy error            =      0.0E+00 Ry
     Gradient error          =      6.6E-02 Ry/Bohr

     number of scf cycles    =   1
     number of bfgs steps    =   0

     energy             new  =   -3440.0708827403 Ry

     new trust radius        =       0.0733838312 bohr
     new conv_thr            =       0.0000000010 Ry


ATOMIC_POSITIONS (crystal)
O             0.0241120022        0.5000000000        0.2659250518
O             0.4742452707        0.5000000000        0.2690310450
O            -0.0022653833        0.0000000000        0.2892016900
O             0.4966244589        0.0000000000        0.2888460691
Ru            0.2472795503        0.0000000000        0.3609509323
Ru            0.7470216208        0.0000000000        0.3594355602
O             0.2446744811        0.3035390662        0.3568078327
O             0.7507537725        0.3061973726        0.3538406763
Ru           -0.0007962762        0.5000000000        0.3572375941
Ru            0.4987736216        0.5000000000        0.3504351942
O             0.2446744811        0.6964609338        0.3568078327
O             0.7507537725        0.6938026274        0.3538406763
O            -0.0047909713        0.0000000000        0.4128908642
O             0.4988031974        0.0000000000        0.4128412367
O            -0.0028393905        0.5000000000        0.4455422374
O             0.4964923863        0.5000000000        0.4402113880
Ru           -0.0045484805        0.0000000000        0.5000010000
Ru            0.4984628631        0.0000000000        0.5000010000
O             0.2483227218        0.1910923733        0.5000010000
O             0.7454191798        0.1943259130        0.5000010000
Ru            0.2534087090        0.5000000000        0.5000010000
Ru            0.7419411841        0.5000000000        0.5000010000
O             0.2483227218        0.8089086267        0.5000010000
O             0.7454191798        0.8056750870        0.5000010000
O            -0.0028393905        0.5000000000        0.5544587626
O             0.4964923863        0.5000000000        0.5597896120
O            -0.0047909713        0.0000000000        0.5871101358
O             0.4988031974        0.0000000000        0.5871597633
Ru            0.2472795503        0.0000000000        0.6390500677
Ru            0.7470216208        0.0000000000        0.6405654398
O             0.2446744811        0.3035390662        0.6431931673
O             0.7507537725        0.3061973726        0.6461603237
Ru           -0.0007962762        0.5000000000        0.6427634059
Ru            0.4987736216        0.5000000000        0.6495658058
O             0.2446744811        0.6964609338        0.6431931673
O             0.7507537725        0.6938026274        0.6461603237
O            -0.0022653833        0.0000000000        0.7108003100
O             0.4966244589        0.0000000000        0.7111559309
O             0.0241120022        0.5000000000        0.7340759482
O             0.4742452707        0.5000000000        0.7309699550
H             0.1770312904        0.5000000000        0.2604027314
H             0.1770312904        0.5000000000        0.7395972686
H            -0.0009713438        0.1287394530        0.2616304488
H            -0.0009713438        0.1287394530        0.7383695512
H             0.4953278818        0.1274049660        0.2608760868
H             0.4953278818        0.1274049660        0.7391239132
H            -0.0009713438        0.8712605470        0.2616304488
H            -0.0009713438        0.8712605470        0.7383695512
H             0.4953278818        0.8725950340        0.2608760868
H             0.4953278818        0.8725950340        0.7391239132



     Writing config-only to output data dir /storage/home/mgm6007/ixd4/Maria/Strain0_Files/RuO2-110-0-02345/RuO2-110-0-02345.save/
     NEW-OLD atomic charge density approx. for the potential

     Check: negative core charge=   -0.000001

     negative rho (up, down):  9.381E-05 0.000E+00

     add environment contribution to local potential
     Polarization accuracy = 3.9E-12, # of iterations =  41

     total cpu time spent up to now is    13287.5 secs

     per-process dynamical memory:   212.7 Mb

     Self-consistent Calculation

     iteration #  1     ecut=    50.00 Ry     beta= 0.70
     Davidson diagonalization with overlap
     ethr =  1.00E-06,  avg # of iterations =  9.0

     negative rho (up, down):  3.535E-04 0.000E+00

     add environment contribution to local potential
     Polarization accuracy = 2.6E-12, # of iterations =  42

     total cpu time spent up to now is    13606.4 secs

     total energy              =   -3440.08658946 Ry
     estimated scf accuracy    <       0.03053866 Ry
     electrostatic embedding   =      -0.09298819 Ry
     cavitation energy         =       0.02080148 Ry
     PV energy                 =      -0.08553579 Ry
     correction to one-el term =     168.11314480 Ry

     iteration #  2     ecut=    50.00 Ry     beta= 0.70
     Davidson diagonalization with overlap
     ethr =  8.25E-06,  avg # of iterations =  2.0

     negative rho (up, down):  3.003E-04 0.000E+00

     add environment contribution to local potential
     Polarization accuracy = 1.9E-12, # of iterations =  42

     total cpu time spent up to now is    13892.1 secs

     total energy              =   -3440.08853375 Ry
     estimated scf accuracy    <       0.03189616 Ry
     electrostatic embedding   =      -0.09264490 Ry
     cavitation energy         =       0.02087243 Ry
     PV energy                 =      -0.08547480 Ry
     correction to one-el term =     168.54955505 Ry

     iteration #  3     ecut=    50.00 Ry     beta= 0.70
     Davidson diagonalization with overlap
     ethr =  8.25E-06,  avg # of iterations =  1.0

     negative rho (up, down):  2.397E-04 0.000E+00

     add environment contribution to local potential
     Polarization accuracy = 7.7E-12, # of iterations =  41

     total cpu time spent up to now is    14160.7 secs

     total energy              =   -3440.08987085 Ry
     estimated scf accuracy    <       0.00442101 Ry
     electrostatic embedding   =      -0.09259663 Ry
     cavitation energy         =       0.02086665 Ry
     PV energy                 =      -0.08549744 Ry
     correction to one-el term =     168.51475042 Ry

     iteration #  4     ecut=    50.00 Ry     beta= 0.70
     Davidson diagonalization with overlap
     ethr =  1.19E-06,  avg # of iterations =  2.0

     negative rho (up, down):  1.518E-04 0.000E+00

     add environment contribution to local potential
     Polarization accuracy = 5.7E-12, # of iterations =  41

     total cpu time spent up to now is    14490.3 secs

     total energy              =   -3440.09008013 Ry
     estimated scf accuracy    <       0.00169320 Ry
     electrostatic embedding   =      -0.09300287 Ry
     cavitation energy         =       0.02086130 Ry
     PV energy                 =      -0.08552028 Ry
     correction to one-el term =     168.50128340 Ry

     iteration #  5     ecut=    50.00 Ry     beta= 0.70
     Davidson diagonalization with overlap
     ethr =  4.58E-07,  avg # of iterations =  2.0

     negative rho (up, down):  6.449E-05 0.000E+00

     add environment contribution to local potential
     Polarization accuracy = 4.9E-12, # of iterations =  41

     total cpu time spent up to now is    14736.5 secs

     total energy              =   -3440.09014364 Ry
     estimated scf accuracy    <       0.00036594 Ry
     electrostatic embedding   =      -0.09328041 Ry
     cavitation energy         =       0.02085632 Ry
     PV energy                 =      -0.08553742 Ry
     correction to one-el term =     168.42222739 Ry

     iteration #  6     ecut=    50.00 Ry     beta= 0.70
     Davidson diagonalization with overlap
     ethr =  9.89E-08,  avg # of iterations =  2.0

     negative rho (up, down):  3.324E-05 0.000E+00

     add environment contribution to local potential
     Polarization accuracy = 4.8E-12, # of iterations =  41

     total cpu time spent up to now is    15007.5 secs

     total energy              =   -3440.09015765 Ry
     estimated scf accuracy    <       0.00018365 Ry
     electrostatic embedding   =      -0.09376193 Ry
     cavitation energy         =       0.02085199 Ry
     PV energy                 =      -0.08555011 Ry
     correction to one-el term =     168.29155022 Ry

     iteration #  7     ecut=    50.00 Ry     beta= 0.70
     Davidson diagonalization with overlap
     ethr =  4.96E-08,  avg # of iterations =  1.0

     negative rho (up, down):  8.918E-06 0.000E+00

     add environment contribution to local potential
     Polarization accuracy = 4.0E-12, # of iterations =  41

     total cpu time spent up to now is    15296.3 secs

     total energy              =   -3440.09016115 Ry
     estimated scf accuracy    <       0.00014779 Ry
     electrostatic embedding   =      -0.09409705 Ry
     cavitation energy         =       0.02085151 Ry
     PV energy                 =      -0.08555178 Ry
     correction to one-el term =     168.19922550 Ry

     iteration #  8     ecut=    50.00 Ry     beta= 0.70
     Davidson diagonalization with overlap
     ethr =  3.99E-08,  avg # of iterations =  1.0

     negative rho (up, down):  5.084E-06 0.000E+00

     add environment contribution to local potential
     Polarization accuracy = 1.8E-12, # of iterations =  41

     total cpu time spent up to now is    15589.4 secs

     total energy              =   -3440.09016145 Ry
     estimated scf accuracy    <       0.00003764 Ry
     electrostatic embedding   =      -0.09474051 Ry
     cavitation energy         =       0.02085488 Ry
     PV energy                 =      -0.08554554 Ry
     correction to one-el term =     168.00715153 Ry

     iteration #  9     ecut=    50.00 Ry     beta= 0.70
     Davidson diagonalization with overlap
     ethr =  1.02E-08,  avg # of iterations =  2.0

     negative rho (up, down):  4.491E-06 0.000E+00

     add environment contribution to local potential
     Polarization accuracy = 3.8E-12, # of iterations =  44

     total cpu time spent up to now is    15883.0 secs

     total energy              =   -3440.09016245 Ry
     estimated scf accuracy    <       0.00001916 Ry
     electrostatic embedding   =      -0.09513073 Ry
     cavitation energy         =       0.02085931 Ry
     PV energy                 =      -0.08553771 Ry
     correction to one-el term =     167.90095994 Ry

     iteration # 10     ecut=    50.00 Ry     beta= 0.70
     Davidson diagonalization with overlap
     ethr =  5.18E-09,  avg # of iterations =  1.0

     negative rho (up, down):  6.747E-06 0.000E+00

     add environment contribution to local potential
[...]
     atom   25 type  1   force =     0.18656833    0.00000000  -24.75762866
     atom   26 type  1   force =    -0.19605662   -0.00000000  -27.21870765
     atom   27 type  1   force =     0.26648261    0.00000000  -37.14024643
     atom   28 type  1   force =    -0.30178426   -0.00000000  -37.20710815
     atom   29 type  2   force =    -0.18686034    0.00000000 -161.93217323
     atom   30 type  2   force =     0.23741797    0.00000000 -163.25924762
     atom   31 type  1   force =    -0.28233644    1.33508446  -61.03174510
     atom   32 type  1   force =     0.10925102    1.18038705  -63.30818944
     atom   33 type  2   force =     1.86148789    0.00000000 -162.75084265
     atom   34 type  2   force =    -1.83030060    0.00000000 -168.66165334
     atom   35 type  1   force =    -0.28233644   -1.33508446  -61.03174510
     atom   36 type  1   force =     0.10925102   -1.18038705  -63.30818944
     atom   37 type  1   force =     0.18453211    0.00000000  -88.23941623
     atom   38 type  1   force =    -0.20008519    0.00000000  -88.20697820
     atom   39 type  1   force =     2.08304089    0.00000000  -91.53034044
     atom   40 type  1   force =    -0.69935144    0.00000000  -94.98262068
     atom   41 type  3   force =    -2.52087506    0.00000000   15.39777979
     atom   42 type  3   force =    -2.52087506    0.00000000  -15.39777979
     atom   43 type  3   force =     0.05600024   -2.32572914   16.36877505
     atom   44 type  3   force =     0.05600024   -2.32572914  -16.36877505
     atom   45 type  3   force =    -0.03314080   -2.31280613   16.43126308
     atom   46 type  3   force =    -0.03314080   -2.31280613  -16.43126308
     atom   47 type  3   force =     0.05600024    2.32572914   16.36877505
     atom   48 type  3   force =     0.05600024    2.32572914  -16.36877505
     atom   49 type  3   force =    -0.03314080    2.31280613   16.43126308
     atom   50 type  3   force =    -0.03314080    2.31280613  -16.43126308
     The core correction contribution to forces
     atom    1 type  1   force =    -0.01571307   -0.00000000   -0.00567759
     atom    2 type  1   force =     0.00029206    0.00000000   -0.00909509
     atom    3 type  1   force =    -0.00001782    0.00000000    0.01336536
     atom    4 type  1   force =     0.00019124    0.00000000    0.01358538
     atom    5 type  2   force =     0.00000000    0.00000000    0.00000000
     atom    6 type  2   force =     0.00000000    0.00000000    0.00000000
     atom    7 type  1   force =    -0.00035515   -0.00020925    0.00086176
     atom    8 type  1   force =     0.00061661   -0.00008871    0.00008952
     atom    9 type  2   force =     0.00000000    0.00000000    0.00000000
     atom   10 type  2   force =     0.00000000    0.00000000    0.00000000
     atom   11 type  1   force =    -0.00035515    0.00020925    0.00086176
     atom   12 type  1   force =     0.00061661    0.00008871    0.00008952
     atom   13 type  1   force =    -0.00017784   -0.00000000    0.00269070
     atom   14 type  1   force =     0.00022524   -0.00000000    0.00278393
     atom   15 type  1   force =     0.00016969   -0.00000000    0.00034085
     atom   16 type  1   force =    -0.00002800    0.00000000   -0.00315260
     atom   17 type  2   force =     0.00000000    0.00000000    0.00000000
     atom   18 type  2   force =     0.00000000    0.00000000    0.00000000
     atom   19 type  1   force =    -0.00029835    0.00008786   -0.00000191
     atom   20 type  1   force =     0.00025584    0.00017760   -0.00000193
     atom   21 type  2   force =     0.00000000    0.00000000    0.00000000
     atom   22 type  2   force =     0.00000000    0.00000000    0.00000000
     atom   23 type  1   force =    -0.00029835   -0.00008847   -0.00000191
     atom   24 type  1   force =     0.00025584   -0.00017821   -0.00000193
     atom   25 type  1   force =     0.00016967   -0.00000000   -0.00034323
     atom   26 type  1   force =    -0.00002797    0.00000000    0.00315046
     atom   27 type  1   force =    -0.00017784   -0.00000000   -0.00269274
     atom   28 type  1   force =     0.00022525   -0.00000000   -0.00278599
     atom   29 type  2   force =     0.00000000    0.00000000    0.00000000
     atom   30 type  2   force =     0.00000000    0.00000000    0.00000000
     atom   31 type  1   force =    -0.00035507   -0.00020904   -0.00086356
     atom   32 type  1   force =     0.00061652   -0.00008846   -0.00009140
     atom   33 type  2   force =     0.00000000    0.00000000    0.00000000
     atom   34 type  2   force =     0.00000000    0.00000000    0.00000000
     atom   35 type  1   force =    -0.00035507    0.00020904   -0.00086356
     atom   36 type  1   force =     0.00061652    0.00008846   -0.00009140
     atom   37 type  1   force =    -0.00001790   -0.00000000   -0.01336955
     atom   38 type  1   force =     0.00019135    0.00000000   -0.01358963
     atom   39 type  1   force =    -0.01571370    0.00000000    0.00567533
     atom   40 type  1   force =     0.00029208   -0.00000000    0.00909275
     atom   41 type  3   force =     0.00000000    0.00000000    0.00000000
     atom   42 type  3   force =     0.00000000    0.00000000    0.00000000
     atom   43 type  3   force =     0.00000000    0.00000000    0.00000000
     atom   44 type  3   force =     0.00000000    0.00000000    0.00000000
     atom   45 type  3   force =     0.00000000    0.00000000    0.00000000
     atom   46 type  3   force =     0.00000000    0.00000000    0.00000000
     atom   47 type  3   force =     0.00000000    0.00000000    0.00000000
     atom   48 type  3   force =     0.00000000    0.00000000    0.00000000
     atom   49 type  3   force =     0.00000000    0.00000000    0.00000000
     atom   50 type  3   force =     0.00000000    0.00000000    0.00000000
     The Hubbard contrib.    to forces
     atom    1 type  1   force =     0.00000000    0.00000000    0.00000000
     atom    2 type  1   force =     0.00000000    0.00000000    0.00000000
     atom    3 type  1   force =     0.00000000    0.00000000    0.00000000
     atom    4 type  1   force =     0.00000000    0.00000000    0.00000000
     atom    5 type  2   force =     0.00000000    0.00000000    0.00000000
     atom    6 type  2   force =     0.00000000    0.00000000    0.00000000
     atom    7 type  1   force =     0.00000000    0.00000000    0.00000000
     atom    8 type  1   force =     0.00000000    0.00000000    0.00000000
     atom    9 type  2   force =     0.00000000    0.00000000    0.00000000
     atom   10 type  2   force =     0.00000000    0.00000000    0.00000000
     atom   11 type  1   force =     0.00000000    0.00000000    0.00000000
     atom   12 type  1   force =     0.00000000    0.00000000    0.00000000
     atom   13 type  1   force =     0.00000000    0.00000000    0.00000000
     atom   14 type  1   force =     0.00000000    0.00000000    0.00000000
     atom   15 type  1   force =     0.00000000    0.00000000    0.00000000
     atom   16 type  1   force =     0.00000000    0.00000000    0.00000000
     atom   17 type  2   force =     0.00000000    0.00000000    0.00000000
     atom   18 type  2   force =     0.00000000    0.00000000    0.00000000
     atom   19 type  1   force =     0.00000000    0.00000000    0.00000000
     atom   20 type  1   force =     0.00000000    0.00000000    0.00000000
     atom   21 type  2   force =     0.00000000    0.00000000    0.00000000
     atom   22 type  2   force =     0.00000000    0.00000000    0.00000000
     atom   23 type  1   force =     0.00000000    0.00000000    0.00000000
     atom   24 type  1   force =     0.00000000    0.00000000    0.00000000
     atom   25 type  1   force =     0.00000000    0.00000000    0.00000000
     atom   26 type  1   force =     0.00000000    0.00000000    0.00000000
     atom   27 type  1   force =     0.00000000    0.00000000    0.00000000
     atom   28 type  1   force =     0.00000000    0.00000000    0.00000000
     atom   29 type  2   force =     0.00000000    0.00000000    0.00000000
     atom   30 type  2   force =     0.00000000    0.00000000    0.00000000
     atom   31 type  1   force =     0.00000000    0.00000000    0.00000000
     atom   32 type  1   force =     0.00000000    0.00000000    0.00000000
     atom   33 type  2   force =     0.00000000    0.00000000    0.00000000
     atom   34 type  2   force =     0.00000000    0.00000000    0.00000000
     atom   35 type  1   force =     0.00000000    0.00000000    0.00000000
     atom   36 type  1   force =     0.00000000    0.00000000    0.00000000
     atom   37 type  1   force =     0.00000000    0.00000000    0.00000000
     atom   38 type  1   force =     0.00000000    0.00000000    0.00000000
     atom   39 type  1   force =     0.00000000    0.00000000    0.00000000
     atom   40 type  1   force =     0.00000000    0.00000000    0.00000000
     atom   41 type  3   force =     0.00000000    0.00000000    0.00000000
     atom   42 type  3   force =     0.00000000    0.00000000    0.00000000
     atom   43 type  3   force =     0.00000000    0.00000000    0.00000000
     atom   44 type  3   force =     0.00000000    0.00000000    0.00000000
     atom   45 type  3   force =     0.00000000    0.00000000    0.00000000
     atom   46 type  3   force =     0.00000000    0.00000000    0.00000000
     atom   47 type  3   force =     0.00000000    0.00000000    0.00000000
     atom   48 type  3   force =     0.00000000    0.00000000    0.00000000
     atom   49 type  3   force =     0.00000000    0.00000000    0.00000000
     atom   50 type  3   force =     0.00000000    0.00000000    0.00000000
     The SCF correction term to forces
     atom    1 type  1   force =    -0.00000090    0.00000000   -0.00000057
     atom    2 type  1   force =     0.00000049    0.00000000   -0.00000073
     atom    3 type  1   force =    -0.00000026   -0.00000000   -0.00000120
     atom    4 type  1   force =     0.00000033   -0.00000000    0.00000012
     atom    5 type  2   force =    -0.00000182   -0.00000000    0.00000201
     atom    6 type  2   force =     0.00000173   -0.00000000    0.00000143
     atom    7 type  1   force =    -0.00000091    0.00000125    0.00000045
     atom    8 type  1   force =     0.00000092    0.00000156    0.00000017
     atom    9 type  2   force =    -0.00000098    0.00000000   -0.00000031
     atom   10 type  2   force =     0.00000093    0.00000000    0.00000115
     atom   11 type  1   force =    -0.00000091   -0.00000125    0.00000045
     atom   12 type  1   force =     0.00000092   -0.00000156    0.00000017
     atom   13 type  1   force =     0.00000012   -0.00000000    0.00000083
     atom   14 type  1   force =    -0.00000003   -0.00000000    0.00000179
     atom   15 type  1   force =    -0.00000040    0.00000000   -0.00000065
     atom   16 type  1   force =     0.00000058    0.00000000    0.00000020
     atom   17 type  2   force =     0.00000041   -0.00000000   -0.00000001
     atom   18 type  2   force =    -0.00000018   -0.00000000   -0.00000001
     atom   19 type  1   force =     0.00000036   -0.00000047   -0.00000000
     atom   20 type  1   force =    -0.00000016    0.00000053   -0.00000000
     atom   21 type  2   force =    -0.00000011   -0.00000000   -0.00000001
     atom   22 type  2   force =     0.00000005    0.00000000   -0.00000001
     atom   23 type  1   force =     0.00000036    0.00000047   -0.00000000
     atom   24 type  1   force =    -0.00000016   -0.00000053   -0.00000000
     atom   25 type  1   force =    -0.00000040    0.00000000    0.00000064
     atom   26 type  1   force =     0.00000058    0.00000000   -0.00000021
     atom   27 type  1   force =     0.00000012   -0.00000000   -0.00000084
     atom   28 type  1   force =    -0.00000004   -0.00000000   -0.00000179
     atom   29 type  2   force =    -0.00000183   -0.00000000   -0.00000203
     atom   30 type  2   force =     0.00000173   -0.00000000   -0.00000145
     atom   31 type  1   force =    -0.00000092    0.00000125   -0.00000046
     atom   32 type  1   force =     0.00000092    0.00000156   -0.00000017
     atom   33 type  2   force =    -0.00000097    0.00000000    0.00000030
     atom   34 type  2   force =     0.00000092    0.00000000   -0.00000116
     atom   35 type  1   force =    -0.00000092   -0.00000125   -0.00000046
     atom   36 type  1   force =     0.00000092   -0.00000156   -0.00000017
     atom   37 type  1   force =    -0.00000026   -0.00000000    0.00000120
     atom   38 type  1   force =     0.00000032   -0.00000000   -0.00000012
     atom   39 type  1   force =    -0.00000090    0.00000000    0.00000057
     atom   40 type  1   force =     0.00000049    0.00000000    0.00000073
     atom   41 type  3   force =    -0.00000018    0.00000000   -0.00000006
     atom   42 type  3   force =    -0.00000018    0.00000000    0.00000006
     atom   43 type  3   force =    -0.00000004    0.00000010   -0.00000009
     atom   44 type  3   force =    -0.00000004    0.00000010    0.00000009
     atom   45 type  3   force =     0.00000004    0.00000025   -0.00000016
     atom   46 type  3   force =     0.00000004    0.00000025    0.00000016
     atom   47 type  3   force =    -0.00000004   -0.00000010   -0.00000009
     atom   48 type  3   force =    -0.00000004   -0.00000010    0.00000009
     atom   49 type  3   force =     0.00000004   -0.00000025   -0.00000016
     atom   50 type  3   force =     0.00000004   -0.00000025    0.00000016

     Total force =     0.000326     Total SCF correction =     0.000009
     Energy error            =      2.9E-07 Ry
     Gradient error          =      9.4E-05 Ry/Bohr

     bfgs converged in  25 scf cycles and  24 bfgs steps
     (criteria: energy <  1.0E-04 Ry, force <  1.0E-04 Ry/Bohr)

     End of BFGS Geometry Optimization

     Final energy             =   -3440.1051730799 Ry

     File /storage/home/mgm6007/ixd4/Maria/Strain0_Files/RuO2-110-0-02345/RuO2-110-0-02345.bfgs deleted, as requested
Begin final coordinates

ATOMIC_POSITIONS (crystal)
O             0.0223147147        0.5000000000        0.2643537504
O             0.4756468184        0.5000000000        0.2672351722
O            -0.0019455374        0.0000000000        0.2875891365
O             0.4966352796        0.0000000000        0.2872115191
Ru            0.2477495757        0.0000000000        0.3605496042
Ru            0.7472961423        0.0000000000        0.3592897855
O             0.2455887826        0.3055043067        0.3562107357
O             0.7499438253        0.3074026011        0.3532193901
Ru           -0.0011708808        0.5000000000        0.3563724813
Ru            0.4978896245        0.5000000000        0.3488923380
O             0.2455887826        0.6944956933        0.3562107357
O             0.7499438253        0.6925973989        0.3532193901
O            -0.0039155515        0.0000000000        0.4124974827
O             0.4985792751        0.0000000000        0.4125813385
O            -0.0029533275        0.5000000000        0.4454158389
O             0.4979201717        0.5000000000        0.4403950403
Ru           -0.0031397776        0.0000000000        0.5000010000
Ru            0.4976089749        0.0000000000        0.5000010000
O             0.2479214528        0.1904416530        0.5000010000
O             0.7464087740        0.1910097885        0.5000010000
Ru            0.2537372222        0.5000000000        0.5000010000
Ru            0.7416848804        0.5000000000        0.5000010000
O             0.2479214528        0.8095593470        0.5000010000
O             0.7464087740        0.8089912115        0.5000010000
O            -0.0029533275        0.5000000000        0.5545851611
O             0.4979201717        0.5000000000        0.5596059597
O            -0.0039155515        0.0000000000        0.5875035173
O             0.4985792751        0.0000000000        0.5874196615
Ru            0.2477495757        0.0000000000        0.6394513958
Ru            0.7472961423        0.0000000000        0.6407112145
O             0.2455887826        0.3055043067        0.6437902643
O             0.7499438253        0.3074026011        0.6467816099
Ru           -0.0011708808        0.5000000000        0.6436285187
Ru            0.4978896245        0.5000000000        0.6511086620
O             0.2455887826        0.6944956933        0.6437902643
O             0.7499438253        0.6925973989        0.6467816099
O            -0.0019455374        0.0000000000        0.7124128635
O             0.4966352796        0.0000000000        0.7127904809
O             0.0223147147        0.5000000000        0.7356472496
O             0.4756468184        0.5000000000        0.7327658278
H             0.1753852432        0.5000000000        0.2581799218
H             0.1753852432        0.5000000000        0.7418200782
H            -0.0009138036        0.1314886146        0.2625719705
H            -0.0009138036        0.1314886146        0.7374280295
H             0.4948449834        0.1300754316        0.2618237894
H             0.4948449834        0.1300754316        0.7381762106
H            -0.0009138036        0.8685113854        0.2625719705
H            -0.0009138036        0.8685113854        0.7374280295
H             0.4948449834        0.8699245684        0.2618237894
H             0.4948449834        0.8699245684        0.7381762106
End final coordinates



     Writing all to output data dir /storage/home/mgm6007/ixd4/Maria/Strain0_Files/RuO2-110-0-02345/RuO2-110-0-02345.save/
 
     init_run     :    316.60s CPU    963.40s WALL (       1 calls)
     electrons    :  40695.30s CPU 113202.62s WALL (      25 calls)
     update_pot   :     42.10s CPU     44.07s WALL (      24 calls)
     forces       :     39.71s CPU     43.32s WALL (      25 calls)

     Called by init_run:
     wfcinit      :      0.53s CPU      0.53s WALL (       1 calls)
     potinit      :    183.36s CPU    645.83s WALL (       1 calls)
     hinit0       :    132.24s CPU    316.53s WALL (       1 calls)

     Called by electrons:
     c_bands      :    587.02s CPU    621.37s WALL (     453 calls)
     sum_band     :    134.93s CPU    139.21s WALL (     453 calls)
     v_of_rho     :     75.74s CPU     77.16s WALL (     457 calls)
     newd         :     33.08s CPU     34.39s WALL (     457 calls)
     PAW_pot      :     55.62s CPU     57.70s WALL (     481 calls)
     mix_rho      :    324.03s CPU    336.17s WALL (     453 calls)

     Called by c_bands:
     init_us_2    :      6.03s CPU      6.13s WALL (     931 calls)
     init_us_2:cp :      6.03s CPU      6.13s WALL (     931 calls)
     cegterg      :    565.33s CPU    586.18s WALL (     453 calls)

     Called by *egterg:
     cdiaghg      :     66.49s CPU     68.85s WALL (    1278 calls)
     h_psi        :    302.48s CPU    314.35s WALL (    1324 calls)
     s_psi        :     43.80s CPU     45.21s WALL (    1324 calls)
     g_psi        :      1.41s CPU      1.49s WALL (     870 calls)

     Called by h_psi:
     h_psi:calbec :     44.91s CPU     46.27s WALL (    1324 calls)
     vloc_psi     :    209.40s CPU    218.48s WALL (    1324 calls)
     add_vuspsi   :     44.60s CPU     45.97s WALL (    1324 calls)

     General routines
     calbec       :     71.39s CPU     73.74s WALL (    1901 calls)
     fft          :  11157.96s CPU  11183.88s WALL (    6211 calls)
     ffts         :    115.96s CPU    119.24s WALL (  174967 calls)
     fftw         :    182.03s CPU    189.53s WALL (  525812 calls)
     interpolate  :  11117.95s CPU  11142.74s WALL (     457 calls)
 
     Parallel routines
 
     Environ routines
 
     PWSCF        :     11h55m CPU   1d 9h26m WALL

 
   This run was terminated on:  20:57:22  22Jul2023            

=------------------------------------------------------------------------------=
   JOB DONE.
=------------------------------------------------------------------------------=
